
     Program PWSCF v.7.1 starts on 30Nov2025 at  3:36:44 

     This program is part of the open-source Quantum ESPRESSO suite
     for quantum simulation of materials; please cite
         "P. Giannozzi et al., J. Phys.:Condens. Matter 21 395502 (2009);
         "P. Giannozzi et al., J. Phys.:Condens. Matter 29 465901 (2017);
         "P. Giannozzi et al., J. Chem. Phys. 152 154105 (2020);
          URL http://www.quantum-espresso.org", 
     in publications or presentations arising from this work. More details at
     http://www.quantum-espresso.org/quote

     Parallel version (MPI & OpenMP), running on      16 processor cores
     Number of MPI processes:                16
     Threads/MPI process:                     1

     MPI processes distributed on     1 nodes
     102179 MiB available memory on the printing compute node when the environment starts

     Waiting for input...
     Reading input from standard input

     Current dimensions of program PWSCF are:
     Max number of different atomic species (ntypx) = 10
     Max number of k-points (npk) =  40000
     Max angular momentum in pseudopotentials (lmaxx) =  4
     Message from routine read_pp_mesh:
     mismatch in mesh size, discarding the one in header
     Message from routine read_pp_mesh:
     mismatch in mesh size, discarding the one in header
     Message from routine read_pp_mesh:
     mismatch in mesh size, discarding the one in header
     Message from routine read_pp_mesh:
     mismatch in mesh size, discarding the one in header
     Message from routine setup:
     using ibrav=0 with symmetry is DISCOURAGED, use correct ibrav instead

     R & G space division:  proc/nbgrp/npool/nimage =      16
     Subspace diagonalization in iterative solution of the eigenvalue problem:
     a serial algorithm will be used


     Parallelization info
     --------------------
     sticks:   dense  smooth     PW     G-vecs:    dense   smooth      PW
     Min         373     186     51                21104     7454    1078
     Max         374     187     52                21108     7457    1081
     Sum        5983    2987    825               337711   119293   17267

     Using Slab Decomposition



     bravais-lattice index     =            0
     lattice parameter (alat)  =      12.6710  a.u.
     unit-cell volume          =    1902.3888 (a.u.)^3
     number of atoms/cell      =           12
     number of atomic types    =            4
     number of electrons       =        98.00
     number of Kohn-Sham states=           49
     kinetic-energy cutoff     =      60.0000  Ry
     charge density cutoff     =     480.0000  Ry
     scf convergence threshold =      1.0E-10
     mixing beta               =       0.7000
     number of iterations used =            8  plain     mixing
     energy convergence thresh.=      1.0E-04
     force convergence thresh. =      1.0E-05
     press convergence thresh. =      5.0E-01
     Exchange-correlation= SLA PW PBX PBC
                           (   1   4   3   4   0   0   0)
     nstep                     =          250


     celldm(1)=  12.671005  celldm(2)=   0.000000  celldm(3)=   0.000000
     celldm(4)=   0.000000  celldm(5)=   0.000000  celldm(6)=   0.000000

     crystal axes: (cart. coord. in units of alat)
               a(1) = (   0.988624   0.106354   0.106354 )  
               a(2) = (   0.106354   0.988624   0.106354 )  
               a(3) = (   0.106354   0.106354   0.988624 )  

     reciprocal axes: (cart. coord. in units 2 pi/alat)
               b(1) = (  1.033096 -0.100344 -0.100344 )  
               b(2) = ( -0.100344  1.033096 -0.100344 )  
               b(3) = ( -0.100344 -0.100344  1.033096 )  


     PseudoPot. # 1 for K  read from file:
     ./K.upf
     MD5 check sum: 9356cfae17991a8ac93a0af773ad5d28
     Pseudo is Projector augmented-wave + core cor, Zval =  9.0
     Generated using ATOMPAW code
     Shape of augmentation charge: SINC**2
     Using radial grid of 2342 points,  5 beta functions with: 
                l(1) =   0
                l(2) =   0
                l(3) =   1
                l(4) =   1
                l(5) =   2
     Q(r) pseudized with 0 coefficients 


     PseudoPot. # 2 for Zr read from file:
     ./Zr.upf
     MD5 check sum: 10be9e9715c592225794718718b87d8f
     Pseudo is Projector augmented-wave + core cor, Zval = 12.0
     Generated using ATOMPAW code
     Shape of augmentation charge: BESSEL
     Using radial grid of 2342 points,  6 beta functions with: 
                l(1) =   0
                l(2) =   0
                l(3) =   1
                l(4) =   1
                l(5) =   2
                l(6) =   2
     Q(r) pseudized with 0 coefficients 


     PseudoPot. # 3 for Sn read from file:
     ./Sn.upf
     MD5 check sum: f8d5c2bd65c7f969f3af92fc3a9f2821
     Pseudo is Projector augmented-wave + core cor, Zval = 14.0
     Generated using ATOMPAW code
     Shape of augmentation charge: BESSEL
     Using radial grid of 2342 points,  6 beta functions with: 
                l(1) =   0
                l(2) =   0
                l(3) =   1
                l(4) =   1
                l(5) =   2
                l(6) =   2
     Q(r) pseudized with 0 coefficients 


     PseudoPot. # 4 for O  read from file:
     ./O.upf
     MD5 check sum: 45fbb1c0d1f8837f1e386a2947d3aa26
     Pseudo is Projector augmented-wave + core cor, Zval =  6.0
     Generated using ATOMPAW code
     Shape of augmentation charge: SINC**2
     Using radial grid of 2342 points,  4 beta functions with: 
                l(1) =   0
                l(2) =   0
                l(3) =   1
                l(4) =   1
     Q(r) pseudized with 0 coefficients 


     atomic species   valence    mass     pseudopotential
        K              9.00    39.09800     K ( 1.00)
        Zr            12.00    91.22400     Zr( 1.00)
        Sn            14.00   118.71000     Sn( 1.00)
        O              6.00    15.99900     O ( 1.00)

      6 Sym. Ops. (no inversion) found



   Cartesian axes

     site n.     atom                  positions (alat units)
         1           K   tau(   1) = (  -0.0111121  -0.0111121  -0.0111121  )
         2           K   tau(   2) = (   0.6753878   0.6753878   0.1424304  )
         3           K   tau(   3) = (   0.6753878   0.1424304   0.6753878  )
         4           K   tau(   4) = (   0.1424304   0.6753878   0.6753878  )
         5           Zr  tau(   5) = (   0.3770743   0.3770743   0.3770743  )
         6           Sn  tau(   6) = (   0.6518817   0.6518817   0.6518817  )
         7           O   tau(   7) = (   0.6578360   0.3537434   0.3537434  )
         8           O   tau(   8) = (   0.2719518  -0.2721634  -0.2721634  )
         9           O   tau(   9) = (   0.3537434   0.6578360   0.3537434  )
        10           O   tau(  10) = (  -0.2721634   0.2719518  -0.2721634  )
        11           O   tau(  11) = (   0.3537434   0.3537434   0.6578360  )
        12           O   tau(  12) = (  -0.2721634  -0.2721634   0.2719518  )

     number of k points=    19
                       cart. coord. in units 2pi/alat
        k(    1) = (   0.0000000   0.0000000   0.0000000), wk =   0.0160000
        k(    2) = (  -0.0200687  -0.0200687   0.2066193), wk =   0.0960000
        k(    3) = (  -0.0401375  -0.0401375   0.4132386), wk =   0.0960000
        k(    4) = (  -0.0401375   0.1865505   0.1865505), wk =   0.0960000
        k(    5) = (  -0.0602062   0.1664818   0.3931698), wk =   0.1920000
        k(    6) = (   0.0200687   0.2467568  -0.4333073), wk =   0.1920000
        k(    7) = (  -0.0000000   0.2266880  -0.2266880), wk =   0.0960000
        k(    8) = (  -0.0802750   0.3731011   0.3731011), wk =   0.0960000
        k(    9) = (   0.0000000   0.4533760  -0.4533760), wk =   0.0960000
        k(   10) = (   0.1664818   0.1664818   0.1664818), wk =   0.0320000
        k(   11) = (   0.1464131   0.1464131   0.3731011), wk =   0.0960000
        k(   12) = (   0.2266880   0.2266880  -0.4533760), wk =   0.0960000
        k(   13) = (   0.2066193   0.2066193  -0.2467568), wk =   0.0960000
        k(   14) = (   0.1263443   0.3530323   0.3530323), wk =   0.0960000
        k(   15) = (   0.2066193   0.4333073  -0.4734448), wk =   0.1920000
        k(   16) = (   0.1865505   0.4132386  -0.2668255), wk =   0.1920000
        k(   17) = (   0.2868942  -0.3931698  -0.3931698), wk =   0.0960000
        k(   18) = (   0.3329636   0.3329636   0.3329636), wk =   0.0320000
        k(   19) = (   0.4132386   0.4132386  -0.4935135), wk =   0.0960000

     Dense  grid:   337711 G-vectors     FFT dimensions: (  90,  90,  90)

     Smooth grid:   119293 G-vectors     FFT dimensions: (  64,  64,  64)

     Estimated max dynamical RAM per process >     109.14 MB

     Estimated total dynamical RAM >       1.71 GB

     Initial potential from superposition of free atoms

     starting charge      97.9154, renormalised to      98.0000
     Starting wfcs are  136 randomized atomic wfcs
     Checking if some PAW data can be deallocated... 

     total cpu time spent up to now is       17.7 secs

     per-process dynamical memory:    79.6 Mb

     Self-consistent Calculation

     iteration #  1     ecut=    60.00 Ry     beta= 0.70
     Davidson diagonalization with overlap
     ethr =  1.00E-02,  avg # of iterations =  1.2

     total cpu time spent up to now is       21.0 secs

     total energy              =   -1448.96619103 Ry
     estimated scf accuracy    <       5.17129013 Ry

     iteration #  2     ecut=    60.00 Ry     beta= 0.70
     Davidson diagonalization with overlap
     ethr =  5.28E-03,  avg # of iterations =  6.3

     total cpu time spent up to now is       27.4 secs

     total energy              =   -1446.13055741 Ry
     estimated scf accuracy    <      31.43295015 Ry

     iteration #  3     ecut=    60.00 Ry     beta= 0.70
     Davidson diagonalization with overlap
     ethr =  5.28E-03,  avg # of iterations =  5.2

     total cpu time spent up to now is       33.1 secs

     total energy              =   -1451.49928529 Ry
     estimated scf accuracy    <       0.95155830 Ry

     iteration #  4     ecut=    60.00 Ry     beta= 0.70
     Davidson diagonalization with overlap
     ethr =  9.71E-04,  avg # of iterations =  5.6

     total cpu time spent up to now is       37.7 secs

     total energy              =   -1451.72103048 Ry
     estimated scf accuracy    <       0.41803209 Ry

     iteration #  5     ecut=    60.00 Ry     beta= 0.70
     Davidson diagonalization with overlap
     ethr =  4.27E-04,  avg # of iterations =  3.7

     total cpu time spent up to now is       41.7 secs

     total energy              =   -1451.74928390 Ry
     estimated scf accuracy    <       0.25754007 Ry

     iteration #  6     ecut=    60.00 Ry     beta= 0.70
     Davidson diagonalization with overlap
     ethr =  2.63E-04,  avg # of iterations =  3.0

     total cpu time spent up to now is       45.7 secs

     total energy              =   -1451.75766183 Ry
     estimated scf accuracy    <       0.03607288 Ry

     iteration #  7     ecut=    60.00 Ry     beta= 0.70
     Davidson diagonalization with overlap
     ethr =  3.68E-05,  avg # of iterations =  4.7

     total cpu time spent up to now is       50.9 secs

     total energy              =   -1451.76800820 Ry
     estimated scf accuracy    <       0.03434020 Ry

     iteration #  8     ecut=    60.00 Ry     beta= 0.70
     Davidson diagonalization with overlap
     ethr =  3.50E-05,  avg # of iterations =  3.1

     total cpu time spent up to now is       55.0 secs

     total energy              =   -1451.77027750 Ry
     estimated scf accuracy    <       0.00353942 Ry

     iteration #  9     ecut=    60.00 Ry     beta= 0.70
     Davidson diagonalization with overlap
     ethr =  3.61E-06,  avg # of iterations =  3.6

     total cpu time spent up to now is       59.4 secs

     total energy              =   -1451.77064497 Ry
     estimated scf accuracy    <       0.00025239 Ry

     iteration # 10     ecut=    60.00 Ry     beta= 0.70
     Davidson diagonalization with overlap
     ethr =  2.58E-07,  avg # of iterations =  3.8

     total cpu time spent up to now is       64.1 secs

     total energy              =   -1451.77071003 Ry
     estimated scf accuracy    <       0.00004287 Ry

     iteration # 11     ecut=    60.00 Ry     beta= 0.70
     Davidson diagonalization with overlap
     ethr =  4.37E-08,  avg # of iterations =  3.0

     total cpu time spent up to now is       68.4 secs

     total energy              =   -1451.77071610 Ry
     estimated scf accuracy    <       0.00000343 Ry

     iteration # 12     ecut=    60.00 Ry     beta= 0.70
     Davidson diagonalization with overlap
     ethr =  3.50E-09,  avg # of iterations =  3.8

     total cpu time spent up to now is       73.8 secs

     total energy              =   -1451.77071735 Ry
     estimated scf accuracy    <       0.00000045 Ry

     iteration # 13     ecut=    60.00 Ry     beta= 0.70
     Davidson diagonalization with overlap
     ethr =  4.55E-10,  avg # of iterations =  3.0

     total cpu time spent up to now is       78.3 secs

     total energy              =   -1451.77071743 Ry
     estimated scf accuracy    <       0.00000001 Ry

     iteration # 14     ecut=    60.00 Ry     beta= 0.70
     Davidson diagonalization with overlap
     ethr =  1.35E-11,  avg # of iterations =  4.0

     total cpu time spent up to now is       84.1 secs

     total energy              =   -1451.77071744 Ry
     estimated scf accuracy    <          3.4E-09 Ry

     iteration # 15     ecut=    60.00 Ry     beta= 0.70
     Davidson diagonalization with overlap
     ethr =  3.47E-12,  avg # of iterations =  3.0

     total cpu time spent up to now is       88.4 secs

     total energy              =   -1451.77071744 Ry
     estimated scf accuracy    <          4.1E-10 Ry

     iteration # 16     ecut=    60.00 Ry     beta= 0.70
     Davidson diagonalization with overlap
     ethr =  4.18E-13,  avg # of iterations =  3.3

     total cpu time spent up to now is       93.1 secs

     End of self-consistent calculation

          k = 0.0000 0.0000 0.0000 ( 14961 PWs)   bands (ev):

   -44.2440 -26.4906 -25.3275 -25.2482 -25.2482 -22.7937 -22.7001 -22.7001
   -16.7457 -16.7457 -16.6220 -16.3593 -16.3593 -12.5626 -12.2861 -12.2393
   -12.2393 -11.5768 -11.5768 -10.1541  -9.8499  -9.8499  -9.1228  -8.8933
    -8.8933  -8.8061  -8.7565  -8.7565  -8.6686  -8.5187  -8.5187  -1.8542
     0.7488   0.7668   0.7668   1.1554   1.1554   1.6085   1.6085   1.8354
     2.3493   2.3493   2.4401   2.6703   2.7719   2.7719   3.2531   3.2531
     3.4926

          k =-0.0201-0.0201 0.2066 ( 14971 PWs)   bands (ev):

   -44.2440 -26.4906 -25.3269 -25.2488 -25.2482 -22.7936 -22.7001 -22.7001
   -16.7459 -16.7455 -16.6220 -16.3596 -16.3593 -12.5658 -12.2952 -12.2371
   -12.2322 -11.5847 -11.5595 -10.1540  -9.8519  -9.8489  -9.2003  -8.9401
    -8.8817  -8.7870  -8.7463  -8.6987  -8.6322  -8.5281  -8.5172  -1.8301
     0.6986   0.7501   0.7953   1.1264   1.1602   1.5860   1.6014   1.8388
     2.3133   2.3697   2.4654   2.5889   2.7757   2.8561   3.1675   3.2500
     3.4667

          k =-0.0401-0.0401 0.4132 ( 14940 PWs)   bands (ev):

   -44.2440 -26.4906 -25.3259 -25.2498 -25.2482 -22.7936 -22.7002 -22.7001
   -16.7460 -16.7450 -16.6220 -16.3602 -16.3592 -12.5720 -12.3060 -12.2350
   -12.2203 -11.5979 -11.5327 -10.1539  -9.8552  -9.8471  -9.2898  -8.9931
    -8.8741  -8.7419  -8.7400  -8.6683  -8.5859  -8.5211  -8.5129  -1.7897
     0.6245   0.7186   0.8436   1.0762   1.1736   1.5397   1.5951   1.8358
     2.2844   2.4100   2.4780   2.5152   2.7816   2.9219   3.0712   3.2426
     3.4292

          k =-0.0401 0.1866 0.1866 ( 14945 PWs)   bands (ev):

   -44.2440 -26.4906 -25.3267 -25.2487 -25.2485 -22.7936 -22.7001 -22.7001
   -16.7458 -16.7454 -16.6220 -16.3598 -16.3594 -12.5700 -12.3051 -12.2342
   -12.2304 -11.5769 -11.5567 -10.1544  -9.8504  -9.8498  -9.1962  -8.9402
    -8.8842  -8.7619  -8.7561  -8.6884  -8.6358  -8.5461  -8.5218  -1.8153
     0.6604   0.7769   0.7933   1.1345   1.1361   1.5756   1.6127   1.8200
     2.3280   2.3446   2.4760   2.5307   2.8223   2.8487   3.1939   3.2122
     3.4512

          k =-0.0602 0.1665 0.3932 ( 14937 PWs)   bands (ev):

   -44.2440 -26.4906 -25.3258 -25.2496 -25.2485 -22.7936 -22.7002 -22.7001
   -16.7458 -16.7450 -16.6220 -16.3603 -16.3595 -12.5762 -12.3174 -12.2315
   -12.2208 -11.5850 -11.5328 -10.1545  -9.8533  -9.8482  -9.2674  -8.9812
    -8.9043  -8.7308  -8.7050  -8.6658  -8.6067  -8.5477  -8.5182  -1.7791
     0.5908   0.7541   0.8383   1.0853   1.1514   1.5409   1.6039   1.8144
     2.2925   2.3801   2.4494   2.4972   2.8230   2.9240   3.1104   3.2091
     3.4152

          k = 0.0201 0.2468-0.4333 ( 14929 PWs)   bands (ev):

   -44.2440 -26.4906 -25.3254 -25.2500 -25.2484 -22.7936 -22.7003 -22.7001
   -16.7458 -16.7450 -16.6220 -16.3603 -16.3595 -12.5753 -12.3162 -12.2308
   -12.2188 -11.5868 -11.5309 -10.1542  -9.8550  -9.8479  -9.3055  -9.0066
    -8.9138  -8.7456  -8.6799  -8.6473  -8.5840  -8.5283  -8.5146  -1.7719
     0.5885   0.7402   0.8389   1.0663   1.1632   1.5306   1.5890   1.8243
     2.2862   2.3765   2.4671   2.5003   2.8215   2.9611   3.0565   3.2106
     3.4063

          k =-0.0000 0.2267-0.2267 ( 14955 PWs)   bands (ev):

   -44.2440 -26.4906 -25.3261 -25.2494 -25.2483 -22.7936 -22.7002 -22.7001
   -16.7457 -16.7454 -16.6220 -16.3598 -16.3594 -12.5685 -12.3038 -12.2327
   -12.2271 -11.5806 -11.5528 -10.1538  -9.8536  -9.8488  -9.2723  -8.9800
    -8.9050  -8.7793  -8.6998  -8.6557  -8.5996  -8.5233  -8.5136  -1.8040
     0.6539   0.7479   0.8019   1.0993   1.1589   1.5676   1.5806   1.8444
     2.2993   2.3676   2.4890   2.5277   2.8072   2.9244   3.0875   3.2268
     3.4367

          k =-0.0803 0.3731 0.3731 ( 14896 PWs)   bands (ev):

   -44.2440 -26.4906 -25.3253 -25.2496 -25.2489 -22.7936 -22.7002 -22.7001
   -16.7457 -16.7448 -16.6219 -16.3606 -16.3597 -12.5828 -12.3326 -12.2262
   -12.2182 -11.5761 -11.5226 -10.1553  -9.8518  -9.8496  -9.2793  -8.9961
    -8.8803  -8.7694  -8.6751  -8.6276  -8.6264  -8.5540  -8.5173  -1.7540
     0.5296   0.7968   0.8347   1.1039   1.1077   1.5296   1.6059   1.7962
     2.2874   2.3632   2.3720   2.5176   2.8375   2.9921   3.1119   3.1536
     3.3897

          k = 0.0000 0.4534-0.4534 ( 14920 PWs)   bands (ev):

   -44.2440 -26.4906 -25.3251 -25.2499 -25.2488 -22.7936 -22.7003 -22.7001
   -16.7457 -16.7448 -16.6220 -16.3606 -16.3597 -12.5824 -12.3318 -12.2260
   -12.2167 -11.5777 -11.5210 -10.1551  -9.8533  -9.8489  -9.2993  -9.0093
    -8.9155  -8.7433  -8.6487  -8.6425  -8.5984  -8.5519  -8.5157  -1.7495
     0.5289   0.7832   0.8395   1.0706   1.1374   1.5218   1.5977   1.7995
     2.2827   2.3409   2.4093   2.5161   2.8368   3.0352   3.0473   3.1680
     3.3836

          k = 0.1665 0.1665 0.1665 ( 14980 PWs)   bands (ev):

   -44.2440 -26.4906 -25.3269 -25.2485 -25.2485 -22.7937 -22.7001 -22.7001
   -16.7455 -16.7455 -16.6220 -16.3598 -16.3598 -12.5769 -12.3144 -12.2313
   -12.2313 -11.5620 -11.5620 -10.1551  -9.8489  -9.8489  -9.1122  -8.8940
    -8.8940  -8.7639  -8.7639  -8.7286  -8.6669  -8.5541  -8.5541  -1.8059
     0.6192   0.8067   0.8067   1.1324   1.1324   1.6081   1.6081   1.7715
     2.3453   2.3453   2.4550   2.4891   2.8416   2.8416   3.2233   3.2233
     3.4458

          k = 0.1464 0.1464 0.3731 ( 14929 PWs)   bands (ev):

   -44.2440 -26.4906 -25.3261 -25.2492 -25.2485 -22.7937 -22.7002 -22.7001
   -16.7456 -16.7450 -16.6220 -16.3603 -16.3598 -12.5842 -12.3266 -12.2300
   -12.2210 -11.5741 -11.5336 -10.1553  -9.8513  -9.8473  -9.1911  -8.9415
    -8.8797  -8.7510  -8.7328  -8.6788  -8.6298  -8.5692  -8.5552  -1.7708
     0.5441   0.7853   0.8568   1.0971   1.1414   1.5678   1.6025   1.7685
     2.3109   2.3727   2.4151   2.4730   2.8486   2.9183   3.1452   3.2148
     3.4119

          k = 0.2267 0.2267-0.4534 ( 14918 PWs)   bands (ev):

   -44.2440 -26.4906 -25.3254 -25.2499 -25.2485 -22.7936 -22.7003 -22.7001
   -16.7456 -16.7450 -16.6220 -16.3604 -16.3598 -12.5818 -12.3253 -12.2285
   -12.2176 -11.5763 -11.5303 -10.1547  -9.8543  -9.8471  -9.2847  -8.9941
    -8.8759  -8.7478  -8.7391  -8.6276  -8.5926  -8.5415  -8.5231  -1.7587
     0.5405   0.7608   0.8550   1.0741   1.1518   1.5455   1.5752   1.7991
     2.3057   2.3383   2.4509   2.4909   2.8602   2.9622   3.0654   3.1987
     3.3952

          k = 0.2066 0.2066-0.2468 ( 14928 PWs)   bands (ev):

   -44.2440 -26.4906 -25.3258 -25.2496 -25.2485 -22.7936 -22.7002 -22.7001
   -16.7455 -16.7455 -16.6220 -16.3598 -16.3598 -12.5725 -12.3133 -12.2286
   -12.2258 -11.5654 -11.5564 -10.1542  -9.8537  -9.8487  -9.2871  -8.9939
    -8.8789  -8.7635  -8.7495  -8.6157  -8.5989  -8.5341  -8.5056  -1.7868
     0.6135   0.7659   0.8052   1.0968   1.1439   1.5582   1.5786   1.8323
     2.3170   2.3338   2.4795   2.5016   2.8604   2.9316   3.0789   3.1979
     3.4176

          k = 0.1263 0.3530 0.3530 ( 14932 PWs)   bands (ev):

   -44.2440 -26.4906 -25.3258 -25.2490 -25.2489 -22.7937 -22.7002 -22.7002
   -16.7455 -16.7449 -16.6220 -16.3606 -16.3601 -12.5929 -12.3401 -12.2247
   -12.2187 -11.5624 -11.5270 -10.1559  -9.8488  -9.8488  -9.1862  -8.9416
    -8.8842  -8.7754  -8.7085  -8.6401  -8.6376  -8.5902  -8.5651  -1.7439
     0.4742   0.8254   0.8619   1.1033   1.1179   1.5509   1.6050   1.7421
     2.3021   2.3322   2.3771   2.4888   2.8847   2.9746   3.1374   3.1688
     3.3866

          k = 0.2066 0.4333-0.4734 ( 14931 PWs)   bands (ev):

   -44.2440 -26.4906 -25.3252 -25.2497 -25.2488 -22.7937 -22.7002 -22.7001
   -16.7455 -16.7449 -16.6220 -16.3606 -16.3601 -12.5904 -12.3398 -12.2233
   -12.2166 -11.5618 -11.5258 -10.1555  -9.8521  -9.8480  -9.2615  -8.9831
    -8.9049  -8.7430  -8.7016  -8.6272  -8.5957  -8.5787  -8.5307  -1.7360
     0.4758   0.8093   0.8556   1.0816   1.1292   1.5332   1.5846   1.7697
     2.2703   2.3330   2.3996   2.5038   2.9035   3.0199   3.0641   3.1491
     3.3730

          k = 0.1866 0.4132-0.2668 ( 14903 PWs)   bands (ev):

   -44.2440 -26.4906 -25.3252 -25.2499 -25.2486 -22.7936 -22.7003 -22.7001
   -16.7456 -16.7450 -16.6219 -16.3603 -16.3598 -12.5796 -12.3268 -12.2259
   -12.2196 -11.5685 -11.5360 -10.1547  -9.8538  -9.8486  -9.3019  -9.0081
    -8.9151  -8.7333  -8.7067  -8.6125  -8.5927  -8.5475  -8.5075  -1.7581
     0.5505   0.7769   0.8291   1.0726   1.1427   1.5292   1.5872   1.8090
     2.2824   2.3535   2.4214   2.5106   2.8988   2.9596   3.0718   3.1622
     3.3886

          k = 0.2869-0.3932-0.3932 ( 14921 PWs)   bands (ev):

   -44.2440 -26.4906 -25.3251 -25.2498 -25.2489 -22.7936 -22.7002 -22.7001
   -16.7455 -16.7449 -16.6219 -16.3606 -16.3601 -12.5892 -12.3405 -12.2213
   -12.2181 -11.5574 -11.5291 -10.1555  -9.8521  -9.8486  -9.2786  -8.9960
    -8.8793  -8.7676  -8.7048  -8.6243  -8.6002  -8.5577  -8.5172  -1.7356
     0.4796   0.8256   0.8339   1.0959   1.1095   1.5300   1.5845   1.7781
     2.2569   2.3625   2.3652   2.5155   2.9253   3.0105   3.0947   3.1020
     3.3702

          k = 0.3330 0.3330 0.3330 ( 14947 PWs)   bands (ev):

   -44.2440 -26.4906 -25.3259 -25.2489 -25.2489 -22.7938 -22.7002 -22.7002
   -16.7451 -16.7451 -16.6220 -16.3606 -16.3606 -12.6055 -12.3516 -12.2189
   -12.2189 -11.5362 -11.5362 -10.1565  -9.8473  -9.8473  -9.1019  -8.8943
    -8.8943  -8.7817  -8.7817  -8.6642  -8.6076  -8.6076  -8.5979  -1.7183
     0.3943   0.8751   0.8751   1.1090   1.1090   1.5813   1.5813   1.6788
     2.2449   2.3582   2.3582   2.4823   2.9775   2.9775   3.1385   3.1385
     3.3679

          k = 0.4132 0.4132-0.4935 ( 14922 PWs)   bands (ev):

   -44.2440 -26.4906 -25.3254 -25.2493 -25.2489 -22.7938 -22.7002 -22.7002
   -16.7451 -16.7450 -16.6219 -16.3606 -16.3606 -12.6034 -12.3515 -12.2186
   -12.2168 -11.5376 -11.5333 -10.1563  -9.8493  -9.8472  -9.1847  -8.9422
    -8.8817  -8.7705  -8.7448  -8.6348  -8.6109  -8.5993  -8.5604  -1.7131
     0.3953   0.8575   0.8748   1.0988   1.1142   1.5550   1.5669   1.7150
     2.2242   2.3564   2.3747   2.4935   2.9980   3.0117   3.0803   3.1141
     3.3581

     highest occupied level (ev):     3.4926

!    total energy              =   -1451.77071744 Ry
     total all-electron energy =     -1451.770717 Ry
     estimated scf accuracy    <          2.5E-11 Ry

     The total energy is the sum of the following terms:
     one-electron contribution =    -427.04236245 Ry
     hartree contribution      =     274.99051583 Ry
     xc contribution           =    -119.65132517 Ry
     ewald contribution        =    -357.23408774 Ry
     one-center paw contrib.   =    -822.83345791 Ry

     convergence has been achieved in  16 iterations

     Forces acting on atoms (cartesian axes, Ry/au):

     atom    1 type  1   force =    -0.00000156   -0.00000156   -0.00000156
     atom    2 type  1   force =     0.00000200    0.00000200    0.00000179
     atom    3 type  1   force =     0.00000200    0.00000179    0.00000200
     atom    4 type  1   force =     0.00000179    0.00000200    0.00000200
     atom    5 type  2   force =     0.00001552    0.00001552    0.00001552
     atom    6 type  3   force =     0.00000427    0.00000427    0.00000427
     atom    7 type  4   force =    -0.00003869    0.00003948    0.00003948
     atom    8 type  4   force =    -0.00003705   -0.00001363   -0.00001363
     atom    9 type  4   force =     0.00003948   -0.00003869    0.00003948
     atom   10 type  4   force =    -0.00001363   -0.00003705   -0.00001363
     atom   11 type  4   force =     0.00003948    0.00003948   -0.00003869
     atom   12 type  4   force =    -0.00001363   -0.00001363   -0.00003705

     Total force =     0.000141     Total SCF correction =     0.000011


     Computing stress (Cartesian axis) and pressure

          total   stress  (Ry/bohr**3)                   (kbar)     P=       -0.89
  -0.00000607   0.00000240   0.00000240           -0.89        0.35        0.35
   0.00000240  -0.00000607   0.00000240            0.35       -0.89        0.35
   0.00000240   0.00000240  -0.00000607            0.35        0.35       -0.89


     BFGS Geometry Optimization
     Energy error            =      0.0E+00 Ry
     Gradient error          =      3.9E-05 Ry/Bohr
     Cell gradient error     =      8.9E-01 kbar

     number of scf cycles    =   1
     number of bfgs steps    =   0

     enthalpy           new  =   -1451.7707174379 Ry

     new trust radius        =       0.0015150860 bohr
     new conv_thr            =            1.0E-10 Ry

     new unit-cell volume =   1901.52343 a.u.^3 (   281.77670 Ang^3 )
     density =      2.72450 g/cm^3

CELL_PARAMETERS (angstrom)
   6.628009214   0.713458696   0.713458696
   0.713458696   6.628009214   0.713458696
   0.713458696   0.713458696   6.628009214

ATOMIC_POSITIONS (angstrom)
K            -0.0745073409       -0.0745073409       -0.0745073409
K             4.5282575833        4.5282575833        0.9554240057
K             4.5282575833        0.9554240057        4.5282575833
K             0.9554240057        4.5282575833        4.5282575833
Zr            2.5282890832        2.5282890832        2.5282890832
Sn            4.3708643571        4.3708643571        4.3708643571
O             4.4105215498        2.3719899391        2.3719899391
O             1.8229787638       -1.8246428254       -1.8246428254
O             2.3719899391        4.4105215498        2.3719899391
O            -1.8246428254        1.8229787638       -1.8246428254
O             2.3719899391        2.3719899391        4.4105215498
O            -1.8246428254       -1.8246428254        1.8229787638



     Writing config-only to output data dir ./K4ZrSnO6.save/
     NEW-OLD atomic charge density approx. for the potential
     extrapolated charge   97.95544, renormalised to   98.00000

     total cpu time spent up to now is      138.9 secs

     per-process dynamical memory:   112.7 Mb

     Self-consistent Calculation

     iteration #  1     ecut=    60.00 Ry     beta= 0.70
     Davidson diagonalization with overlap
     ethr =  1.00E-06,  avg # of iterations =  2.0

     total cpu time spent up to now is      143.3 secs

     total energy              =   -1451.77054485 Ry
     estimated scf accuracy    <       0.00013304 Ry

     iteration #  2     ecut=    60.00 Ry     beta= 0.70
     Davidson diagonalization with overlap
     ethr =  1.36E-07,  avg # of iterations =  4.0

     total cpu time spent up to now is      149.4 secs

     total energy              =   -1451.77068234 Ry
     estimated scf accuracy    <       0.00055413 Ry

     iteration #  3     ecut=    60.00 Ry     beta= 0.70
     Davidson diagonalization with overlap
     ethr =  1.36E-07,  avg # of iterations =  3.5

     total cpu time spent up to now is      154.2 secs

     total energy              =   -1451.77072871 Ry
     estimated scf accuracy    <       0.00005955 Ry

     iteration #  4     ecut=    60.00 Ry     beta= 0.70
     Davidson diagonalization with overlap
     ethr =  6.08E-08,  avg # of iterations =  3.0

     total cpu time spent up to now is      158.1 secs

     total energy              =   -1451.77072763 Ry
     estimated scf accuracy    <       0.00003403 Ry

     iteration #  5     ecut=    60.00 Ry     beta= 0.70
     Davidson diagonalization with overlap
     ethr =  3.47E-08,  avg # of iterations =  1.9

     total cpu time spent up to now is      161.6 secs

     total energy              =   -1451.77072597 Ry
     estimated scf accuracy    <       0.00002201 Ry

     iteration #  6     ecut=    60.00 Ry     beta= 0.70
     Davidson diagonalization with overlap
     ethr =  2.25E-08,  avg # of iterations =  1.0

     total cpu time spent up to now is      165.0 secs

     total energy              =   -1451.77072418 Ry
     estimated scf accuracy    <       0.00001402 Ry

     iteration #  7     ecut=    60.00 Ry     beta= 0.70
     Davidson diagonalization with overlap
     ethr =  1.43E-08,  avg # of iterations =  1.8

     total cpu time spent up to now is      168.5 secs

     total energy              =   -1451.77072335 Ry
     estimated scf accuracy    <       0.00000673 Ry

     iteration #  8     ecut=    60.00 Ry     beta= 0.70
     Davidson diagonalization with overlap
     ethr =  6.87E-09,  avg # of iterations =  2.7

     total cpu time spent up to now is      172.4 secs

     total energy              =   -1451.77072356 Ry
     estimated scf accuracy    <       0.00000217 Ry

     iteration #  9     ecut=    60.00 Ry     beta= 0.70
     Davidson diagonalization with overlap
     ethr =  2.21E-09,  avg # of iterations =  2.3

     total cpu time spent up to now is      176.0 secs

     total energy              =   -1451.77072332 Ry
     estimated scf accuracy    <       0.00000141 Ry

     iteration # 10     ecut=    60.00 Ry     beta= 0.70
     Davidson diagonalization with overlap
     ethr =  1.44E-09,  avg # of iterations =  2.3

     total cpu time spent up to now is      179.8 secs

     total energy              =   -1451.77072325 Ry
     estimated scf accuracy    <       0.00000040 Ry

     iteration # 11     ecut=    60.00 Ry     beta= 0.70
     Davidson diagonalization with overlap
     ethr =  4.04E-10,  avg # of iterations =  3.1

     total cpu time spent up to now is      184.5 secs

     total energy              =   -1451.77072334 Ry
     estimated scf accuracy    <          8.9E-09 Ry

     iteration # 12     ecut=    60.00 Ry     beta= 0.70
     Davidson diagonalization with overlap
     ethr =  9.08E-12,  avg # of iterations =  4.1

     total cpu time spent up to now is      190.1 secs

     total energy              =   -1451.77072335 Ry
     estimated scf accuracy    <          5.0E-09 Ry

     iteration # 13     ecut=    60.00 Ry     beta= 0.70
     Davidson diagonalization with overlap
     ethr =  5.06E-12,  avg # of iterations =  1.2

     total cpu time spent up to now is      193.5 secs

     total energy              =   -1451.77072335 Ry
     estimated scf accuracy    <          6.1E-09 Ry

     iteration # 14     ecut=    60.00 Ry     beta= 0.70
     Davidson diagonalization with overlap
     ethr =  5.06E-12,  avg # of iterations =  3.0

     total cpu time spent up to now is      197.9 secs

     total energy              =   -1451.77072335 Ry
     estimated scf accuracy    <          2.5E-09 Ry

     iteration # 15     ecut=    60.00 Ry     beta= 0.70
     Davidson diagonalization with overlap
     ethr =  2.58E-12,  avg # of iterations =  1.0

     total cpu time spent up to now is      201.2 secs

     total energy              =   -1451.77072335 Ry
     estimated scf accuracy    <          2.5E-09 Ry

     iteration # 16     ecut=    60.00 Ry     beta= 0.70
     Davidson diagonalization with overlap
     ethr =  2.53E-12,  avg # of iterations =  1.0

     total cpu time spent up to now is      204.6 secs

     total energy              =   -1451.77072335 Ry
     estimated scf accuracy    <          3.0E-09 Ry

     iteration # 17     ecut=    60.00 Ry     beta= 0.70
     Davidson diagonalization with overlap
     ethr =  2.53E-12,  avg # of iterations =  3.0

     total cpu time spent up to now is      208.3 secs

     total energy              =   -1451.77072335 Ry
     estimated scf accuracy    <          2.2E-09 Ry

     iteration # 18     ecut=    60.00 Ry     beta= 0.70
     Davidson diagonalization with overlap
     ethr =  2.26E-12,  avg # of iterations =  2.4

     total cpu time spent up to now is      212.2 secs

     total energy              =   -1451.77072335 Ry
     estimated scf accuracy    <          7.2E-10 Ry

     iteration # 19     ecut=    60.00 Ry     beta= 0.70
     Davidson diagonalization with overlap
     ethr =  7.34E-13,  avg # of iterations =  2.0

     total cpu time spent up to now is      215.7 secs

     total energy              =   -1451.77072335 Ry
     estimated scf accuracy    <          4.7E-10 Ry

     iteration # 20     ecut=    60.00 Ry     beta= 0.70
     Davidson diagonalization with overlap
     ethr =  4.79E-13,  avg # of iterations =  2.0

     total cpu time spent up to now is      219.3 secs

     total energy              =   -1451.77072335 Ry
     estimated scf accuracy    <          2.1E-10 Ry

     iteration # 21     ecut=    60.00 Ry     beta= 0.70
     Davidson diagonalization with overlap
     ethr =  2.13E-13,  avg # of iterations =  3.1

     total cpu time spent up to now is      223.5 secs

     End of self-consistent calculation

          k = 0.0000 0.0000 0.0000 ( 14961 PWs)   bands (ev):

   -44.2385 -26.4852 -25.3238 -25.2443 -25.2443 -22.7890 -22.6958 -22.6958
   -16.7424 -16.7424 -16.6180 -16.3551 -16.3551 -12.5602 -12.2836 -12.2363
   -12.2363 -11.5736 -11.5736 -10.1488  -9.8445  -9.8445  -9.1192  -8.8895
    -8.8895  -8.8024  -8.7526  -8.7526  -8.6647  -8.5147  -8.5147  -1.8512
     0.7509   0.7689   0.7689   1.1580   1.1580   1.6111   1.6111   1.8391
     2.3524   2.3524   2.4429   2.6729   2.7746   2.7746   3.2562   3.2562
     3.4956

          k =-0.0201-0.0201 0.2067 ( 14971 PWs)   bands (ev):

   -44.2385 -26.4852 -25.3231 -25.2449 -25.2443 -22.7889 -22.6959 -22.6958
   -16.7425 -16.7422 -16.6180 -16.3555 -16.3551 -12.5635 -12.2927 -12.2340
   -12.2292 -11.5815 -11.5562 -10.1487  -9.8466  -9.8435  -9.1969  -8.9364
    -8.8778  -8.7834  -8.7424  -8.6946  -8.6281  -8.5242  -8.5133  -1.8271
     0.7007   0.7522   0.7973   1.1290   1.1628   1.5886   1.6040   1.8425
     2.3163   2.3727   2.4682   2.5915   2.7784   2.8589   3.1705   3.2530
     3.4697

          k =-0.0402-0.0402 0.4133 ( 14940 PWs)   bands (ev):

   -44.2385 -26.4852 -25.3221 -25.2459 -25.2443 -22.7889 -22.6960 -22.6958
   -16.7427 -16.7417 -16.6180 -16.3560 -16.3551 -12.5698 -12.3035 -12.2319
   -12.2172 -11.5947 -11.5295 -10.1486  -9.8499  -9.8417  -9.2866  -8.9895
    -8.8703  -8.7380  -8.7363  -8.6643  -8.5817  -8.5169  -8.5089  -1.7866
     0.6265   0.7206   0.8457   1.0787   1.1762   1.5423   1.5977   1.8395
     2.2874   2.4128   2.4808   2.5180   2.7843   2.9247   3.0741   3.2456
     3.4321

          k =-0.0402 0.1866 0.1866 ( 14945 PWs)   bands (ev):

   -44.2385 -26.4852 -25.3229 -25.2448 -25.2446 -22.7889 -22.6959 -22.6959
   -16.7424 -16.7421 -16.6180 -16.3556 -16.3553 -12.5678 -12.3025 -12.2311
   -12.2274 -11.5737 -11.5535 -10.1491  -9.8451  -9.8444  -9.1927  -8.9365
    -8.8804  -8.7582  -8.7522  -8.6844  -8.6318  -8.5421  -8.5178  -1.8122
     0.6624   0.7790   0.7953   1.1370   1.1386   1.5782   1.6152   1.8236
     2.3310   2.3476   2.4788   2.5333   2.8250   2.8515   3.1969   3.2153
     3.4542

          k =-0.0602 0.1665 0.3932 ( 14937 PWs)   bands (ev):

   -44.2385 -26.4852 -25.3220 -25.2457 -25.2446 -22.7889 -22.6960 -22.6959
   -16.7425 -16.7417 -16.6180 -16.3561 -16.3553 -12.5740 -12.3148 -12.2285
   -12.2177 -11.5818 -11.5295 -10.1492  -9.8480  -9.8428  -9.2641  -8.9776
    -8.9006  -8.7269  -8.7011  -8.6618  -8.6026  -8.5436  -8.5141  -1.7759
     0.5928   0.7561   0.8403   1.0878   1.1539   1.5435   1.6065   1.8181
     2.2954   2.3829   2.4521   2.5001   2.8258   2.9269   3.1133   3.2121
     3.4182

          k = 0.0201 0.2468-0.4334 ( 14929 PWs)   bands (ev):

   -44.2385 -26.4852 -25.3217 -25.2461 -25.2445 -22.7889 -22.6960 -22.6959
   -16.7425 -16.7417 -16.6180 -16.3562 -16.3553 -12.5732 -12.3136 -12.2277
   -12.2157 -11.5837 -11.5276 -10.1489  -9.8496  -9.8425  -9.3023  -9.0031
    -8.9101  -8.7418  -8.6758  -8.6433  -8.5798  -8.5243  -8.5105  -1.7687
     0.5905   0.7422   0.8410   1.0689   1.1658   1.5332   1.5916   1.8280
     2.2891   2.3791   2.4699   2.5031   2.8243   2.9640   3.0594   3.2136
     3.4093

          k = 0.0000 0.2267-0.2267 ( 14955 PWs)   bands (ev):

   -44.2385 -26.4852 -25.3224 -25.2455 -25.2444 -22.7889 -22.6960 -22.6958
   -16.7424 -16.7421 -16.6180 -16.3556 -16.3553 -12.5662 -12.3013 -12.2296
   -12.2241 -11.5773 -11.5496 -10.1485  -9.8483  -9.8434  -9.2691  -8.9764
    -8.9013  -8.7756  -8.6957  -8.6516  -8.5955  -8.5193  -8.5096  -1.8009
     0.6559   0.7499   0.8040   1.1018   1.1615   1.5701   1.5832   1.8481
     2.3022   2.3706   2.4918   2.5304   2.8100   2.9273   3.0904   3.2299
     3.4397

          k =-0.0803 0.3731 0.3731 ( 14896 PWs)   bands (ev):

   -44.2385 -26.4852 -25.3216 -25.2457 -25.2450 -22.7889 -22.6960 -22.6959
   -16.7424 -16.7414 -16.6180 -16.3565 -16.3556 -12.5807 -12.3300 -12.2231
   -12.2151 -11.5729 -11.5193 -10.1500  -9.8464  -9.8442  -9.2760  -8.9926
    -8.8765  -8.7655  -8.6713  -8.6236  -8.6225  -8.5499  -8.5132  -1.7508
     0.5315   0.7988   0.8367   1.1065   1.1102   1.5323   1.6085   1.7999
     2.2902   2.3658   2.3748   2.5204   2.8403   2.9950   3.1149   3.1566
     3.3926

          k = 0.0000 0.4535-0.4535 ( 14920 PWs)   bands (ev):

   -44.2385 -26.4852 -25.3213 -25.2460 -25.2449 -22.7889 -22.6960 -22.6959
   -16.7424 -16.7415 -16.6180 -16.3565 -16.3556 -12.5802 -12.3292 -12.2229
   -12.2136 -11.5745 -11.5177 -10.1498  -9.8480  -9.8435  -9.2961  -9.0058
    -8.9118  -8.7394  -8.6448  -8.6385  -8.5944  -8.5478  -8.5115  -1.7463
     0.5308   0.7853   0.8416   1.0731   1.1399   1.5245   1.6003   1.8032
     2.2855   2.3435   2.4121   2.5189   2.8396   3.0382   3.0503   3.1710
     3.3865

          k = 0.1665 0.1665 0.1665 ( 14980 PWs)   bands (ev):

   -44.2385 -26.4852 -25.3231 -25.2446 -25.2446 -22.7890 -22.6959 -22.6959
   -16.7422 -16.7422 -16.6180 -16.3556 -16.3556 -12.5747 -12.3118 -12.2282
   -12.2282 -11.5588 -11.5588 -10.1498  -9.8435  -9.8435  -9.1086  -8.8902
    -8.8902  -8.7600  -8.7600  -8.7249  -8.6630  -8.5502  -8.5502  -1.8028
     0.6212   0.8088   0.8088   1.1350   1.1350   1.6107   1.6107   1.7752
     2.3483   2.3483   2.4577   2.4916   2.8444   2.8444   3.2263   3.2263
     3.4487

          k = 0.1464 0.1464 0.3731 ( 14929 PWs)   bands (ev):

   -44.2385 -26.4852 -25.3224 -25.2453 -25.2445 -22.7890 -22.6960 -22.6959
   -16.7423 -16.7417 -16.6180 -16.3562 -16.3556 -12.5820 -12.3240 -12.2269
   -12.2179 -11.5709 -11.5304 -10.1500  -9.8459  -9.8419  -9.1877  -8.9378
    -8.8759  -8.7471  -8.7288  -8.6750  -8.6257  -8.5652  -8.5513  -1.7676
     0.5460   0.7874   0.8589   1.0996   1.1439   1.5704   1.6051   1.7721
     2.3139   2.3754   2.4179   2.4758   2.8515   2.9211   3.1483   3.2179
     3.4148

          k = 0.2267 0.2267-0.4535 ( 14918 PWs)   bands (ev):

   -44.2385 -26.4852 -25.3217 -25.2460 -25.2446 -22.7889 -22.6960 -22.6959
   -16.7423 -16.7417 -16.6180 -16.3562 -16.3556 -12.5796 -12.3227 -12.2255
   -12.2145 -11.5731 -11.5270 -10.1494  -9.8489  -9.8417  -9.2815  -8.9905
    -8.8721  -8.7439  -8.7353  -8.6237  -8.5885  -8.5374  -8.5190  -1.7555
     0.5424   0.7628   0.8571   1.0766   1.1544   1.5481   1.5778   1.8028
     2.3087   2.3408   2.4538   2.4936   2.8630   2.9651   3.0684   3.2017
     3.3981

          k = 0.2067 0.2067-0.2468 ( 14928 PWs)   bands (ev):

   -44.2385 -26.4852 -25.3221 -25.2457 -25.2446 -22.7889 -22.6960 -22.6959
   -16.7422 -16.7422 -16.6180 -16.3556 -16.3556 -12.5703 -12.3108 -12.2255
   -12.2228 -11.5621 -11.5532 -10.1489  -9.8484  -9.8433  -9.2839  -8.9903
    -8.8751  -8.7598  -8.7456  -8.6116  -8.5948  -8.5301  -8.5016  -1.7837
     0.6155   0.7679   0.8072   1.0994   1.1464   1.5608   1.5811   1.8360
     2.3200   2.3366   2.4822   2.5044   2.8632   2.9345   3.0819   3.2009
     3.4205

          k = 0.1263 0.3531 0.3531 ( 14932 PWs)   bands (ev):

   -44.2385 -26.4852 -25.3220 -25.2451 -25.2450 -22.7890 -22.6960 -22.6959
   -16.7422 -16.7416 -16.6180 -16.3565 -16.3559 -12.5908 -12.3374 -12.2216
   -12.2156 -11.5592 -11.5237 -10.1506  -9.8434  -9.8434  -9.1828  -8.9379
    -8.8804  -8.7715  -8.7045  -8.6361  -8.6338  -8.5862  -8.5611  -1.7407
     0.4761   0.8275   0.8640   1.1059   1.1204   1.5536   1.6076   1.7457
     2.3047   2.3350   2.3800   2.4916   2.8875   2.9775   3.1404   3.1718
     3.3895

          k = 0.2067 0.4334-0.4736 ( 14931 PWs)   bands (ev):

   -44.2385 -26.4852 -25.3215 -25.2458 -25.2449 -22.7890 -22.6960 -22.6959
   -16.7422 -16.7416 -16.6180 -16.3565 -16.3559 -12.5883 -12.3371 -12.2202
   -12.2136 -11.5586 -11.5226 -10.1502  -9.8467  -9.8426  -9.2582  -8.9795
    -8.9013  -8.7391  -8.6977  -8.6232  -8.5916  -8.5747  -8.5266  -1.7327
     0.4776   0.8114   0.8577   1.0841   1.1317   1.5359   1.5872   1.7734
     2.2728   2.3358   2.4025   2.5065   2.9063   3.0228   3.0671   3.1521
     3.3759

          k = 0.1866 0.4133-0.2669 ( 14903 PWs)   bands (ev):

   -44.2385 -26.4852 -25.3215 -25.2460 -25.2447 -22.7889 -22.6960 -22.6959
   -16.7423 -16.7417 -16.6180 -16.3562 -16.3556 -12.5775 -12.3241 -12.2229
   -12.2166 -11.5653 -11.5327 -10.1494  -9.8484  -9.8432  -9.2987  -9.0045
    -8.9115  -8.7295  -8.7027  -8.6084  -8.5886  -8.5434  -8.5034  -1.7549
     0.5524   0.7789   0.8311   1.0751   1.1453   1.5319   1.5898   1.8127
     2.2852   2.3563   2.4242   2.5134   2.9016   2.9625   3.0748   3.1652
     3.3915

          k = 0.2870-0.3932-0.3932 ( 14921 PWs)   bands (ev):

   -44.2385 -26.4852 -25.3213 -25.2458 -25.2450 -22.7889 -22.6960 -22.6959
   -16.7422 -16.7416 -16.6180 -16.3565 -16.3559 -12.5871 -12.3379 -12.2183
   -12.2150 -11.5542 -11.5258 -10.1503  -9.8467  -9.8432  -9.2753  -8.9925
    -8.8755  -8.7638  -8.7009  -8.6203  -8.5961  -8.5536  -8.5132  -1.7324
     0.4815   0.8277   0.8360   1.0984   1.1121   1.5328   1.5871   1.7817
     2.2594   2.3652   2.3681   2.5183   2.9282   3.0135   3.0977   3.1049
     3.3731

          k = 0.3330 0.3330 0.3330 ( 14947 PWs)   bands (ev):

   -44.2385 -26.4852 -25.3221 -25.2450 -25.2450 -22.7891 -22.6959 -22.6959
   -16.7417 -16.7417 -16.6180 -16.3565 -16.3565 -12.6034 -12.3489 -12.2158
   -12.2158 -11.5330 -11.5330 -10.1512  -9.8419  -9.8419  -9.0983  -8.8905
    -8.8905  -8.7779  -8.7779  -8.6602  -8.6037  -8.6037  -8.5941  -1.7150
     0.3961   0.8772   0.8772   1.1115   1.1115   1.5840   1.5840   1.6824
     2.2473   2.3611   2.3611   2.4850   2.9804   2.9804   3.1415   3.1415
     3.3709

          k = 0.4133 0.4133-0.4936 ( 14922 PWs)   bands (ev):

   -44.2385 -26.4852 -25.3217 -25.2454 -25.2450 -22.7891 -22.6960 -22.6959
   -16.7417 -16.7417 -16.6180 -16.3565 -16.3565 -12.6014 -12.3488 -12.2155
   -12.2137 -11.5343 -11.5300 -10.1510  -9.8439  -9.8418  -9.1812  -8.9386
    -8.8779  -8.7666  -8.7409  -8.6308  -8.6069  -8.5953  -8.5565  -1.7098
     0.3971   0.8597   0.8770   1.1013   1.1167   1.5578   1.5696   1.7186
     2.2265   2.3593   2.3776   2.4962   3.0009   3.0146   3.0833   3.1172
     3.3610

     highest occupied level (ev):     3.4956

!    total energy              =   -1451.77072335 Ry
     total all-electron energy =     -1451.770723 Ry
     estimated scf accuracy    <          8.2E-12 Ry

     The total energy is the sum of the following terms:
     one-electron contribution =    -426.96503100 Ry
     hartree contribution      =     274.96627403 Ry
     xc contribution           =    -119.65383679 Ry
     ewald contribution        =    -357.28443655 Ry
     one-center paw contrib.   =    -822.83369304 Ry

     convergence has been achieved in  21 iterations

     Forces acting on atoms (cartesian axes, Ry/au):

     atom    1 type  1   force =    -0.00000292   -0.00000292   -0.00000292
     atom    2 type  1   force =     0.00005187    0.00005187   -0.00004979
     atom    3 type  1   force =     0.00005187   -0.00004979    0.00005187
     atom    4 type  1   force =    -0.00004979    0.00005187    0.00005187
     atom    5 type  2   force =    -0.00033448   -0.00033448   -0.00033448
     atom    6 type  3   force =    -0.00011477   -0.00011477   -0.00011477
     atom    7 type  4   force =     0.00037053   -0.00001038   -0.00001038
     atom    8 type  4   force =    -0.00021500    0.00013173    0.00013173
     atom    9 type  4   force =    -0.00001038    0.00037053   -0.00001038
     atom   10 type  4   force =     0.00013173   -0.00021500    0.00013173
     atom   11 type  4   force =    -0.00001038   -0.00001038    0.00037053
     atom   12 type  4   force =     0.00013173    0.00013173   -0.00021500

     Total force =     0.001027     Total SCF correction =     0.000010


     Computing stress (Cartesian axis) and pressure

          total   stress  (Ry/bohr**3)                   (kbar)     P=       -0.62
  -0.00000419   0.00000198   0.00000198           -0.62        0.29        0.29
   0.00000198  -0.00000419   0.00000198            0.29       -0.62        0.29
   0.00000198   0.00000198  -0.00000419            0.29        0.29       -0.62

     Energy error            =      5.9E-06 Ry
     Gradient error          =      3.7E-04 Ry/Bohr
     Cell gradient error     =      6.2E-01 kbar

     number of scf cycles    =   2
     number of bfgs steps    =   1

     enthalpy           old  =   -1451.7707174379 Ry
     enthalpy           new  =   -1451.7707233481 Ry

     CASE: enthalpy          _new < enthalpy          _old

     new trust radius        =       0.0022725882 bohr
     new conv_thr            =            1.0E-12 Ry

     new unit-cell volume =   1900.25924 a.u.^3 (   281.58937 Ang^3 )
     density =      2.72631 g/cm^3

CELL_PARAMETERS (angstrom)
   6.626678371   0.714011836   0.714011836
   0.714011836   6.626678371   0.714011836
   0.714011836   0.714011836   6.626678371

ATOMIC_POSITIONS (angstrom)
K            -0.0745075865       -0.0745075865       -0.0745075865
K             4.5278173623        4.5278173623        0.9560601221
K             4.5278173623        0.9560601221        4.5278173623
K             0.9560601221        4.5278173623        4.5278173623
Zr            2.5280210942        2.5280210942        2.5280210942
Sn            4.3706743603        4.3706743603        4.3706743603
O             4.4102146578        2.3721290600        2.3721290600
O             1.8220776095       -1.8241634874       -1.8241634874
O             2.3721290600        4.4102146578        2.3721290600
O            -1.8241634874        1.8220776095       -1.8241634874
O             2.3721290600        2.3721290600        4.4102146578
O            -1.8241634874       -1.8241634874        1.8220776095



     Writing config-only to output data dir ./K4ZrSnO6.save/
     NEW-OLD atomic charge density approx. for the potential
     extrapolated charge   97.93486, renormalised to   98.00000

     total cpu time spent up to now is      269.2 secs

     per-process dynamical memory:   112.7 Mb

     Self-consistent Calculation

     iteration #  1     ecut=    60.00 Ry     beta= 0.70
     Davidson diagonalization with overlap
     ethr =  1.00E-06,  avg # of iterations =  2.4

     total cpu time spent up to now is      273.8 secs

     total energy              =   -1451.77036039 Ry
     estimated scf accuracy    <       0.00027072 Ry

     iteration #  2     ecut=    60.00 Ry     beta= 0.70
     Davidson diagonalization with overlap
     ethr =  2.76E-07,  avg # of iterations =  4.0

     total cpu time spent up to now is      280.0 secs

     total energy              =   -1451.77064747 Ry
     estimated scf accuracy    <       0.00116246 Ry

     iteration #  3     ecut=    60.00 Ry     beta= 0.70
     Davidson diagonalization with overlap
     ethr =  2.76E-07,  avg # of iterations =  3.5

     total cpu time spent up to now is      284.8 secs

     total energy              =   -1451.77074314 Ry
     estimated scf accuracy    <       0.00012690 Ry

     iteration #  4     ecut=    60.00 Ry     beta= 0.70
     Davidson diagonalization with overlap
     ethr =  1.29E-07,  avg # of iterations =  3.0

     total cpu time spent up to now is      288.7 secs

     total energy              =   -1451.77073962 Ry
     estimated scf accuracy    <       0.00007304 Ry

     iteration #  5     ecut=    60.00 Ry     beta= 0.70
     Davidson diagonalization with overlap
     ethr =  7.45E-08,  avg # of iterations =  2.1

     total cpu time spent up to now is      292.3 secs

     total energy              =   -1451.77073611 Ry
     estimated scf accuracy    <       0.00004561 Ry

     iteration #  6     ecut=    60.00 Ry     beta= 0.70
     Davidson diagonalization with overlap
     ethr =  4.65E-08,  avg # of iterations =  1.0

     total cpu time spent up to now is      295.6 secs

     total energy              =   -1451.77073238 Ry
     estimated scf accuracy    <       0.00002822 Ry

     iteration #  7     ecut=    60.00 Ry     beta= 0.70
     Davidson diagonalization with overlap
     ethr =  2.88E-08,  avg # of iterations =  2.3

     total cpu time spent up to now is      299.3 secs

     total energy              =   -1451.77073148 Ry
     estimated scf accuracy    <       0.00001245 Ry

     iteration #  8     ecut=    60.00 Ry     beta= 0.70
     Davidson diagonalization with overlap
     ethr =  1.27E-08,  avg # of iterations =  2.2

     total cpu time spent up to now is      302.9 secs

     total energy              =   -1451.77073094 Ry
     estimated scf accuracy    <       0.00000565 Ry

     iteration #  9     ecut=    60.00 Ry     beta= 0.70
     Davidson diagonalization with overlap
     ethr =  5.77E-09,  avg # of iterations =  2.8

     total cpu time spent up to now is      306.9 secs

     total energy              =   -1451.77073128 Ry
     estimated scf accuracy    <       0.00000164 Ry

     iteration # 10     ecut=    60.00 Ry     beta= 0.70
     Davidson diagonalization with overlap
     ethr =  1.67E-09,  avg # of iterations =  1.7

     total cpu time spent up to now is      310.4 secs

     total energy              =   -1451.77073077 Ry
     estimated scf accuracy    <       0.00000130 Ry

     iteration # 11     ecut=    60.00 Ry     beta= 0.70
     Davidson diagonalization with overlap
     ethr =  1.32E-09,  avg # of iterations =  3.0

     total cpu time spent up to now is      314.9 secs

     total energy              =   -1451.77073105 Ry
     estimated scf accuracy    <          7.7E-09 Ry

     iteration # 12     ecut=    60.00 Ry     beta= 0.70
     Davidson diagonalization with overlap
     ethr =  7.85E-12,  avg # of iterations =  4.0

     total cpu time spent up to now is      321.1 secs

     total energy              =   -1451.77073107 Ry
     estimated scf accuracy    <       0.00000003 Ry

     iteration # 13     ecut=    60.00 Ry     beta= 0.70
     Davidson diagonalization with overlap
     ethr =  7.85E-12,  avg # of iterations =  3.0

     total cpu time spent up to now is      325.1 secs

     total energy              =   -1451.77073106 Ry
     estimated scf accuracy    <       0.00000002 Ry

     iteration # 14     ecut=    60.00 Ry     beta= 0.70
     Davidson diagonalization with overlap
     ethr =  7.85E-12,  avg # of iterations =  4.0

     total cpu time spent up to now is      330.7 secs

     total energy              =   -1451.77073106 Ry
     estimated scf accuracy    <       0.00000003 Ry

     iteration # 15     ecut=    60.00 Ry     beta= 0.70
     Davidson diagonalization with overlap
     ethr =  7.85E-12,  avg # of iterations =  3.0

     total cpu time spent up to now is      335.0 secs

     total energy              =   -1451.77073107 Ry
     estimated scf accuracy    <          1.5E-09 Ry

     iteration # 16     ecut=    60.00 Ry     beta= 0.70
     Davidson diagonalization with overlap
     ethr =  1.51E-12,  avg # of iterations =  1.0

     total cpu time spent up to now is      338.4 secs

     total energy              =   -1451.77073107 Ry
     estimated scf accuracy    <          9.1E-10 Ry

     iteration # 17     ecut=    60.00 Ry     beta= 0.70
     Davidson diagonalization with overlap
     ethr =  9.32E-13,  avg # of iterations =  3.0

     total cpu time spent up to now is      342.7 secs

     total energy              =   -1451.77073107 Ry
     estimated scf accuracy    <          8.5E-11 Ry

     iteration # 18     ecut=    60.00 Ry     beta= 0.70
     Davidson diagonalization with overlap
     ethr =  1.00E-13,  avg # of iterations =  2.1

     total cpu time spent up to now is      346.5 secs

     total energy              =   -1451.77073107 Ry
     estimated scf accuracy    <          4.5E-11 Ry

     iteration # 19     ecut=    60.00 Ry     beta= 0.70
     Davidson diagonalization with overlap
     ethr =  1.00E-13,  avg # of iterations =  3.0

     total cpu time spent up to now is      350.6 secs

     total energy              =   -1451.77073107 Ry
     estimated scf accuracy    <          3.4E-12 Ry

     iteration # 20     ecut=    60.00 Ry     beta= 0.70
     Davidson diagonalization with overlap
     ethr =  1.00E-13,  avg # of iterations =  1.0

     total cpu time spent up to now is      353.9 secs

     End of self-consistent calculation

          k = 0.0000 0.0000 0.0000 ( 14961 PWs)   bands (ev):

   -44.2339 -26.4766 -25.3181 -25.2384 -25.2384 -22.7846 -22.6915 -22.6915
   -16.7376 -16.7376 -16.6125 -16.3494 -16.3494 -12.5567 -12.2798 -12.2326
   -12.2326 -11.5688 -11.5688 -10.1403  -9.8359  -9.8359  -9.1139  -8.8837
    -8.8837  -8.7969  -8.7467  -8.7467  -8.6586  -8.5087  -8.5087  -1.8468
     0.7546   0.7729   0.7729   1.1621   1.1621   1.6150   1.6150   1.8437
     2.3571   2.3571   2.4471   2.6771   2.7790   2.7790   3.2608   3.2608
     3.5002

          k =-0.0201-0.0201 0.2067 ( 14971 PWs)   bands (ev):

   -44.2339 -26.4766 -25.3175 -25.2390 -25.2384 -22.7846 -22.6915 -22.6915
   -16.7377 -16.7373 -16.6124 -16.3498 -16.3494 -12.5600 -12.2889 -12.2304
   -12.2255 -11.5768 -11.5515 -10.1402  -9.8379  -9.8348  -9.1918  -8.9308
    -8.8721  -8.7778  -8.7365  -8.6885  -8.6219  -8.5182  -8.5073  -1.8226
     0.7044   0.7560   0.8014   1.1331   1.1669   1.5926   1.6079   1.8470
     2.3208   2.3774   2.4726   2.5958   2.7828   2.8633   3.1750   3.2576
     3.4743

          k =-0.0402-0.0402 0.4134 ( 14940 PWs)   bands (ev):

   -44.2339 -26.4766 -25.3165 -25.2400 -25.2384 -22.7845 -22.6916 -22.6915
   -16.7378 -16.7369 -16.6124 -16.3504 -16.3494 -12.5663 -12.2996 -12.2283
   -12.2135 -11.5900 -11.5246 -10.1401  -9.8413  -9.8331  -9.2818  -8.9841
    -8.8646  -8.7320  -8.7307  -8.6582  -8.5754  -8.5106  -8.5029  -1.7819
     0.6300   0.7244   0.8498   1.0828   1.1802   1.5464   1.6016   1.8440
     2.2917   2.4171   2.4851   2.5225   2.7887   2.9292   3.0786   3.2502
     3.4367

          k =-0.0402 0.1866 0.1866 ( 14945 PWs)   bands (ev):

   -44.2339 -26.4766 -25.3173 -25.2389 -25.2387 -22.7846 -22.6915 -22.6915
   -16.7376 -16.7372 -16.6124 -16.3500 -16.3496 -12.5643 -12.2987 -12.2275
   -12.2237 -11.5689 -11.5487 -10.1406  -9.8364  -9.8358  -9.1876  -8.9309
    -8.8747  -8.7526  -8.7463  -8.6782  -8.6256  -8.5362  -8.5118  -1.8077
     0.6660   0.7830   0.7993   1.1411   1.1427   1.5822   1.6192   1.8282
     2.3355   2.3520   2.4832   2.5375   2.8294   2.8559   3.2014   3.2199
     3.4587

          k =-0.0603 0.1665 0.3933 ( 14937 PWs)   bands (ev):

   -44.2339 -26.4766 -25.3164 -25.2398 -25.2386 -22.7846 -22.6916 -22.6915
   -16.7377 -16.7368 -16.6124 -16.3505 -16.3497 -12.5706 -12.3109 -12.2248
   -12.2140 -11.5771 -11.5247 -10.1408  -9.8393  -9.8341  -9.2592  -8.9721
    -8.8950  -8.7211  -8.6952  -8.6556  -8.5964  -8.5375  -8.5080  -1.7713
     0.5963   0.7600   0.8445   1.0918   1.1579   1.5476   1.6105   1.8226
     2.2997   2.3872   2.4563   2.5045   2.8302   2.9313   3.1179   3.2167
     3.4228

          k = 0.0201 0.2469-0.4335 ( 14929 PWs)   bands (ev):

   -44.2339 -26.4765 -25.3161 -25.2402 -25.2386 -22.7845 -22.6917 -22.6915
   -16.7377 -16.7368 -16.6124 -16.3505 -16.3496 -12.5697 -12.3098 -12.2240
   -12.2120 -11.5789 -11.5228 -10.1404  -9.8410  -9.8338  -9.2976  -8.9977
    -8.9046  -8.7362  -8.6697  -8.6373  -8.5735  -8.5181  -8.5044  -1.7640
     0.5940   0.7461   0.8451   1.0729   1.1697   1.5374   1.5955   1.8325
     2.2934   2.3833   2.4743   2.5075   2.8287   2.9685   3.0639   3.2182
     3.4138

          k =-0.0000 0.2268-0.2268 ( 14955 PWs)   bands (ev):

   -44.2339 -26.4766 -25.3168 -25.2396 -25.2385 -22.7845 -22.6916 -22.6915
   -16.7376 -16.7372 -16.6124 -16.3500 -16.3496 -12.5627 -12.2974 -12.2260
   -12.2204 -11.5726 -11.5448 -10.1400  -9.8396  -9.8347  -9.2642  -8.9709
    -8.8958  -8.7700  -8.6896  -8.6454  -8.5893  -8.5133  -8.5034  -1.7963
     0.6595   0.7537   0.8080   1.1059   1.1656   1.5742   1.5871   1.8527
     2.3065   2.3751   2.4962   2.5346   2.8144   2.9318   3.0948   3.2344
     3.4442

          k =-0.0804 0.3732 0.3732 ( 14896 PWs)   bands (ev):

   -44.2339 -26.4765 -25.3159 -25.2398 -25.2391 -22.7846 -22.6916 -22.6915
   -16.7376 -16.7366 -16.6124 -16.3508 -16.3499 -12.5773 -12.3261 -12.2194
   -12.2114 -11.5682 -11.5145 -10.1415  -9.8378  -9.8356  -9.2712  -8.9872
    -8.8708  -8.7596  -8.6655  -8.6175  -8.6165  -8.5436  -8.5069  -1.7461
     0.5349   0.8029   0.8408   1.1104   1.1140   1.5366   1.6126   1.8044
     2.2943   2.3699   2.3790   2.5249   2.8447   2.9996   3.1195   3.1611
     3.3972

          k = 0.0000 0.4536-0.4536 ( 14920 PWs)   bands (ev):

   -44.2339 -26.4765 -25.3157 -25.2401 -25.2389 -22.7846 -22.6917 -22.6915
   -16.7376 -16.7366 -16.6124 -16.3508 -16.3499 -12.5768 -12.3253 -12.2193
   -12.2099 -11.5697 -11.5129 -10.1413  -9.8393  -9.8349  -9.2913  -9.0005
    -8.9063  -8.7336  -8.6387  -8.6325  -8.5883  -8.5416  -8.5053  -1.7416
     0.5343   0.7893   0.8457   1.0770   1.1438   1.5289   1.6044   1.8077
     2.2896   2.3476   2.4163   2.5233   2.8439   3.0428   3.0548   3.1755
     3.3911

          k = 0.1665 0.1665 0.1665 ( 14980 PWs)   bands (ev):

   -44.2339 -26.4766 -25.3175 -25.2386 -25.2386 -22.7847 -22.6915 -22.6915
   -16.7373 -16.7373 -16.6124 -16.3500 -16.3500 -12.5712 -12.3080 -12.2246
   -12.2246 -11.5540 -11.5540 -10.1413  -9.8349  -9.8349  -9.1032  -8.8844
    -8.8844  -8.7542  -8.7542  -8.7193  -8.6569  -8.5443  -8.5443  -1.7983
     0.6247   0.8128   0.8128   1.1390   1.1390   1.6148   1.6148   1.7796
     2.3528   2.3528   2.4620   2.4957   2.8489   2.8489   3.2309   3.2309
     3.4533

          k = 0.1464 0.1464 0.3732 ( 14929 PWs)   bands (ev):

   -44.2339 -26.4765 -25.3167 -25.2394 -25.2386 -22.7847 -22.6916 -22.6915
   -16.7375 -16.7368 -16.6124 -16.3505 -16.3499 -12.5786 -12.3201 -12.2232
   -12.2142 -11.5661 -11.5256 -10.1415  -9.8373  -9.8332  -9.1826  -8.9323
    -8.8702  -8.7412  -8.7229  -8.6693  -8.6196  -8.5592  -8.5454  -1.7630
     0.5494   0.7914   0.8631   1.1036   1.1479   1.5746   1.6092   1.7765
     2.3181   2.3795   2.4222   2.4801   2.8559   2.9256   3.1529   3.2225
     3.4194

          k = 0.2268 0.2268-0.4536 ( 14918 PWs)   bands (ev):

   -44.2339 -26.4765 -25.3161 -25.2401 -25.2386 -22.7846 -22.6917 -22.6915
   -16.7375 -16.7368 -16.6124 -16.3505 -16.3499 -12.5762 -12.3188 -12.2218
   -12.2108 -11.5683 -11.5222 -10.1410  -9.8403  -9.8330  -9.2767  -8.9851
    -8.8664  -8.7380  -8.7295  -8.6177  -8.5823  -8.5313  -8.5127  -1.7508
     0.5459   0.7667   0.8613   1.0805   1.1583   1.5523   1.5818   1.8072
     2.3129   2.3449   2.4583   2.4979   2.8675   2.9695   3.0730   3.2063
     3.4027

          k = 0.2067 0.2067-0.2469 ( 14928 PWs)   bands (ev):

   -44.2339 -26.4766 -25.3164 -25.2398 -25.2387 -22.7846 -22.6916 -22.6915
   -16.7373 -16.7373 -16.6124 -16.3500 -16.3499 -12.5668 -12.3069 -12.2218
   -12.2191 -11.5574 -11.5484 -10.1404  -9.8397  -9.8347  -9.2791  -8.9849
    -8.8695  -8.7542  -8.7396  -8.6054  -8.5887  -8.5239  -8.4954  -1.7790
     0.6190   0.7718   0.8113   1.1034   1.1505   1.5648   1.5852   1.8405
     2.3243   2.3409   2.4864   2.5088   2.8677   2.9390   3.0863   3.2055
     3.4251

          k = 0.1263 0.3531 0.3531 ( 14932 PWs)   bands (ev):

   -44.2339 -26.4765 -25.3164 -25.2392 -25.2391 -22.7847 -22.6916 -22.6916
   -16.7373 -16.7367 -16.6124 -16.3508 -16.3502 -12.5874 -12.3336 -12.2179
   -12.2119 -11.5545 -11.5189 -10.1421  -9.8348  -9.8347  -9.1776  -8.9323
    -8.8747  -8.7657  -8.6984  -8.6300  -8.6281  -8.5802  -8.5552  -1.7360
     0.4795   0.8316   0.8682   1.1098   1.1242   1.5579   1.6118   1.7500
     2.3087   2.3392   2.3842   2.4959   2.8920   2.9820   3.1451   3.1764
     3.3941

          k = 0.2067 0.4335-0.4737 ( 14931 PWs)   bands (ev):

   -44.2339 -26.4765 -25.3158 -25.2399 -25.2390 -22.7846 -22.6917 -22.6915
   -16.7373 -16.7367 -16.6124 -16.3508 -16.3502 -12.5849 -12.3332 -12.2165
   -12.2099 -11.5539 -11.5178 -10.1418  -9.8380  -9.8339  -9.2533  -8.9741
    -8.8957  -8.7332  -8.6916  -8.6172  -8.5855  -8.5687  -8.5205  -1.7280
     0.4810   0.8154   0.8618   1.0879   1.1355   1.5402   1.5914   1.7777
     2.2768   2.3400   2.4068   2.5109   2.9108   3.0274   3.0718   3.1566
     3.3804

          k = 0.1866 0.4134-0.2670 ( 14903 PWs)   bands (ev):

   -44.2339 -26.4765 -25.3158 -25.2401 -25.2388 -22.7846 -22.6917 -22.6915
   -16.7374 -16.7368 -16.6124 -16.3505 -16.3499 -12.5741 -12.3203 -12.2192
   -12.2129 -11.5605 -11.5279 -10.1409  -9.8398  -9.8346  -9.2939  -8.9992
    -8.9060  -8.7238  -8.6967  -8.6023  -8.5823  -8.5371  -8.4973  -1.7502
     0.5559   0.7829   0.8352   1.0790   1.1492   1.5361   1.5938   1.8172
     2.2893   2.3605   2.4285   2.5178   2.9061   2.9670   3.0793   3.1698
     3.3961

          k = 0.2871-0.3933-0.3933 ( 14921 PWs)   bands (ev):

   -44.2339 -26.4765 -25.3157 -25.2400 -25.2391 -22.7846 -22.6917 -22.6916
   -16.7373 -16.7367 -16.6124 -16.3508 -16.3502 -12.5837 -12.3340 -12.2146
   -12.2113 -11.5495 -11.5210 -10.1418  -9.8381  -9.8345  -9.2705  -8.9871
    -8.8698  -8.7579  -8.6951  -8.6143  -8.5901  -8.5473  -8.5070  -1.7276
     0.4849   0.8318   0.8400   1.1022   1.1160   1.5371   1.5913   1.7861
     2.2634   2.3694   2.3723   2.5227   2.9326   3.0181   3.1023   3.1094
     3.3777

          k = 0.3330 0.3330 0.3330 ( 14947 PWs)   bands (ev):

   -44.2339 -26.4765 -25.3165 -25.2391 -25.2391 -22.7848 -22.6916 -22.6916
   -16.7369 -16.7369 -16.6124 -16.3508 -16.3508 -12.6001 -12.3451 -12.2122
   -12.2122 -11.5282 -11.5282 -10.1428  -9.8332  -9.8332  -9.0928  -8.8847
    -8.8847  -8.7721  -8.7721  -8.6541  -8.5978  -8.5978  -8.5884  -1.7102
     0.3993   0.8814   0.8814   1.1153   1.1153   1.5883   1.5883   1.6866
     2.2512   2.3653   2.3653   2.4893   2.9849   2.9849   3.1462   3.1462
     3.3754

          k = 0.4134 0.4134-0.4938 ( 14922 PWs)   bands (ev):

   -44.2339 -26.4765 -25.3161 -25.2395 -25.2391 -22.7847 -22.6916 -22.6916
   -16.7369 -16.7369 -16.6124 -16.3508 -16.3508 -12.5981 -12.3450 -12.2118
   -12.2100 -11.5295 -11.5253 -10.1425  -9.8353  -9.8331  -9.1761  -8.9330
    -8.8722  -8.7607  -8.7350  -8.6247  -8.6009  -8.5894  -8.5507  -1.7050
     0.4003   0.8638   0.8812   1.1051   1.1205   1.5621   1.5739   1.7229
     2.2304   2.3634   2.3817   2.5005   3.0054   3.0191   3.0880   3.1218
     3.3656

     highest occupied level (ev):     3.5002

!    total energy              =   -1451.77073107 Ry
     total all-electron energy =     -1451.770731 Ry
     estimated scf accuracy    <          1.9E-13 Ry

     The total energy is the sum of the following terms:
     one-electron contribution =    -426.76272329 Ry
     hartree contribution      =     274.88505423 Ry
     xc contribution           =    -119.65601555 Ry
     ewald contribution        =    -357.40313298 Ry
     one-center paw contrib.   =    -822.83391347 Ry

     convergence has been achieved in  20 iterations

     Forces acting on atoms (cartesian axes, Ry/au):

     atom    1 type  1   force =    -0.00000898   -0.00000898   -0.00000898
     atom    2 type  1   force =     0.00012389    0.00012389   -0.00012492
     atom    3 type  1   force =     0.00012389   -0.00012492    0.00012389
     atom    4 type  1   force =    -0.00012492    0.00012389    0.00012389
     atom    5 type  2   force =    -0.00038154   -0.00038154   -0.00038154
     atom    6 type  3   force =    -0.00023232   -0.00023232   -0.00023232
     atom    7 type  4   force =     0.00049223   -0.00005900   -0.00005900
     atom    8 type  4   force =    -0.00039590    0.00026082    0.00026082
     atom    9 type  4   force =    -0.00005900    0.00049223   -0.00005900
     atom   10 type  4   force =     0.00026082   -0.00039590    0.00026082
     atom   11 type  4   force =    -0.00005900   -0.00005900    0.00049223
     atom   12 type  4   force =     0.00026082    0.00026082   -0.00039590

     Total force =     0.001538     Total SCF correction =     0.000001


     Computing stress (Cartesian axis) and pressure

          total   stress  (Ry/bohr**3)                   (kbar)     P=       -0.39
  -0.00000268   0.00000154   0.00000154           -0.39        0.23        0.23
   0.00000154  -0.00000268   0.00000154            0.23       -0.39        0.23
   0.00000154   0.00000154  -0.00000268            0.23        0.23       -0.39

     Energy error            =      7.7E-06 Ry
     Gradient error          =      4.9E-04 Ry/Bohr
     Cell gradient error     =      3.9E-01 kbar

     number of scf cycles    =   3
     number of bfgs steps    =   2

     enthalpy           old  =   -1451.7707233481 Ry
     enthalpy           new  =   -1451.7707310657 Ry

     CASE: enthalpy          _new < enthalpy          _old

     new trust radius        =       0.0034088310 bohr
     new conv_thr            =            1.0E-12 Ry

     new unit-cell volume =   1898.38536 a.u.^3 (   281.31169 Ang^3 )
     density =      2.72900 g/cm^3

CELL_PARAMETERS (angstrom)
   6.624713231   0.714875378   0.714875378
   0.714875378   6.624713231   0.714875378
   0.714875378   0.714875378   6.624713231

ATOMIC_POSITIONS (angstrom)
K            -0.0745140997       -0.0745140997       -0.0745140997
K             4.5272560999        4.5272560999        0.9569959048
K             4.5272560999        0.9569959048        4.5272560999
K             0.9569959048        4.5272560999        4.5272560999
Zr            2.5276175755        2.5276175755        2.5276175755
Sn            4.3703487825        4.3703487825        4.3703487825
O             4.4098794427        2.3723437612        2.3723437612
O             1.8205645896       -1.8233499816       -1.8233499816
O             2.3723437612        4.4098794427        2.3723437612
O            -1.8233499816        1.8205645896       -1.8233499816
O             2.3723437612        2.3723437612        4.4098794427
O            -1.8233499816       -1.8233499816        1.8205645896



     Writing config-only to output data dir ./K4ZrSnO6.save/
     NEW-OLD atomic charge density approx. for the potential
     extrapolated charge   97.90335, renormalised to   98.00000

     total cpu time spent up to now is      399.6 secs

     per-process dynamical memory:   112.7 Mb

     Self-consistent Calculation

     iteration #  1     ecut=    60.00 Ry     beta= 0.70
     Davidson diagonalization with overlap
     ethr =  1.00E-06,  avg # of iterations =  3.0

     total cpu time spent up to now is      404.5 secs

     total energy              =   -1451.76993437 Ry
     estimated scf accuracy    <       0.00058396 Ry

     iteration #  2     ecut=    60.00 Ry     beta= 0.70
     Davidson diagonalization with overlap
     ethr =  5.96E-07,  avg # of iterations =  4.0

     total cpu time spent up to now is      410.7 secs

     total energy              =   -1451.77055873 Ry
     estimated scf accuracy    <       0.00255583 Ry

     iteration #  3     ecut=    60.00 Ry     beta= 0.70
     Davidson diagonalization with overlap
     ethr =  5.96E-07,  avg # of iterations =  3.5

     total cpu time spent up to now is      415.4 secs

     total energy              =   -1451.77076780 Ry
     estimated scf accuracy    <       0.00027993 Ry

     iteration #  4     ecut=    60.00 Ry     beta= 0.70
     Davidson diagonalization with overlap
     ethr =  2.86E-07,  avg # of iterations =  3.0

     total cpu time spent up to now is      419.4 secs

     total energy              =   -1451.77075913 Ry
     estimated scf accuracy    <       0.00016211 Ry

     iteration #  5     ecut=    60.00 Ry     beta= 0.70
     Davidson diagonalization with overlap
     ethr =  1.65E-07,  avg # of iterations =  2.1

     total cpu time spent up to now is      422.9 secs

     total energy              =   -1451.77075141 Ry
     estimated scf accuracy    <       0.00009942 Ry

     iteration #  6     ecut=    60.00 Ry     beta= 0.70
     Davidson diagonalization with overlap
     ethr =  1.01E-07,  avg # of iterations =  1.0

     total cpu time spent up to now is      426.3 secs

     total energy              =   -1451.77074315 Ry
     estimated scf accuracy    <       0.00006058 Ry

     iteration #  7     ecut=    60.00 Ry     beta= 0.70
     Davidson diagonalization with overlap
     ethr =  6.18E-08,  avg # of iterations =  2.4

     total cpu time spent up to now is      430.0 secs

     total energy              =   -1451.77074183 Ry
     estimated scf accuracy    <       0.00002476 Ry

     iteration #  8     ecut=    60.00 Ry     beta= 0.70
     Davidson diagonalization with overlap
     ethr =  2.53E-08,  avg # of iterations =  2.3

     total cpu time spent up to now is      433.6 secs

     total energy              =   -1451.77074055 Ry
     estimated scf accuracy    <       0.00001132 Ry

     iteration #  9     ecut=    60.00 Ry     beta= 0.70
     Davidson diagonalization with overlap
     ethr =  1.16E-08,  avg # of iterations =  2.9

     total cpu time spent up to now is      437.6 secs

     total energy              =   -1451.77074128 Ry
     estimated scf accuracy    <       0.00000282 Ry

     iteration # 10     ecut=    60.00 Ry     beta= 0.70
     Davidson diagonalization with overlap
     ethr =  2.88E-09,  avg # of iterations =  1.9

     total cpu time spent up to now is      441.2 secs

     total energy              =   -1451.77074054 Ry
     estimated scf accuracy    <       0.00000201 Ry

     iteration # 11     ecut=    60.00 Ry     beta= 0.70
     Davidson diagonalization with overlap
     ethr =  2.06E-09,  avg # of iterations =  3.0

     total cpu time spent up to now is      445.8 secs

     total energy              =   -1451.77074099 Ry
     estimated scf accuracy    <       0.00000002 Ry

     iteration # 12     ecut=    60.00 Ry     beta= 0.70
     Davidson diagonalization with overlap
     ethr =  2.38E-11,  avg # of iterations =  4.0

     total cpu time spent up to now is      452.0 secs

     total energy              =   -1451.77074101 Ry
     estimated scf accuracy    <       0.00000006 Ry

     iteration # 13     ecut=    60.00 Ry     beta= 0.70
     Davidson diagonalization with overlap
     ethr =  2.38E-11,  avg # of iterations =  3.0

     total cpu time spent up to now is      456.1 secs

     total energy              =   -1451.77074100 Ry
     estimated scf accuracy    <       0.00000001 Ry

     iteration # 14     ecut=    60.00 Ry     beta= 0.70
     Davidson diagonalization with overlap
     ethr =  1.52E-11,  avg # of iterations =  4.0

     total cpu time spent up to now is      461.6 secs

     total energy              =   -1451.77074100 Ry
     estimated scf accuracy    <       0.00000004 Ry

     iteration # 15     ecut=    60.00 Ry     beta= 0.70
     Davidson diagonalization with overlap
     ethr =  1.52E-11,  avg # of iterations =  3.0

     total cpu time spent up to now is      465.8 secs

     total energy              =   -1451.77074101 Ry
     estimated scf accuracy    <          5.4E-09 Ry

     iteration # 16     ecut=    60.00 Ry     beta= 0.70
     Davidson diagonalization with overlap
     ethr =  5.56E-12,  avg # of iterations =  3.0

     total cpu time spent up to now is      469.8 secs

     total energy              =   -1451.77074101 Ry
     estimated scf accuracy    <          8.4E-10 Ry

     iteration # 17     ecut=    60.00 Ry     beta= 0.70
     Davidson diagonalization with overlap
     ethr =  8.61E-13,  avg # of iterations =  3.1

     total cpu time spent up to now is      474.0 secs

     total energy              =   -1451.77074101 Ry
     estimated scf accuracy    <          3.1E-10 Ry

     iteration # 18     ecut=    60.00 Ry     beta= 0.70
     Davidson diagonalization with overlap
     ethr =  3.19E-13,  avg # of iterations =  3.0

     total cpu time spent up to now is      478.4 secs

     total energy              =   -1451.77074101 Ry
     estimated scf accuracy    <          4.2E-11 Ry

     iteration # 19     ecut=    60.00 Ry     beta= 0.70
     Davidson diagonalization with overlap
     ethr =  1.00E-13,  avg # of iterations =  2.0

     total cpu time spent up to now is      482.2 secs

     total energy              =   -1451.77074101 Ry
     estimated scf accuracy    <          2.7E-12 Ry

     iteration # 20     ecut=    60.00 Ry     beta= 0.70
     Davidson diagonalization with overlap
     ethr =  1.00E-13,  avg # of iterations =  1.0

     total cpu time spent up to now is      485.6 secs

     End of self-consistent calculation

          k = 0.0000 0.0000 0.0000 ( 14961 PWs)   bands (ev):

   -44.2282 -26.4631 -25.3099 -25.2297 -25.2297 -22.7791 -22.6857 -22.6857
   -16.7306 -16.7306 -16.6047 -16.3417 -16.3417 -12.5513 -12.2739 -12.2276
   -12.2276 -11.5619 -11.5619 -10.1271  -9.8225  -9.8225  -9.1063  -8.8752
    -8.8752  -8.7889  -8.7381  -8.7381  -8.6497  -8.5000  -8.5000  -1.8406
     0.7604   0.7789   0.7789   1.1683   1.1683   1.6211   1.6211   1.8500
     2.3639   2.3639   2.4534   2.6838   2.7856   2.7856   3.2678   3.2678
     3.5072

          k =-0.0201-0.0201 0.2068 ( 14971 PWs)   bands (ev):

   -44.2282 -26.4631 -25.3093 -25.2304 -25.2297 -22.7791 -22.6857 -22.6857
   -16.7307 -16.7303 -16.6047 -16.3421 -16.3417 -12.5546 -12.2830 -12.2253
   -12.2204 -11.5698 -11.5445 -10.1270  -9.8245  -9.8214  -9.1846  -8.9227
    -8.8638  -8.7697  -8.7278  -8.6795  -8.6128  -8.5094  -8.4985  -1.8163
     0.7100   0.7619   0.8075   1.1392   1.1730   1.5987   1.6139   1.8533
     2.3272   2.3841   2.4790   2.6024   2.7894   2.8701   3.1818   3.2646
     3.4812

          k =-0.0403-0.0403 0.4136 ( 14940 PWs)   bands (ev):

   -44.2282 -26.4631 -25.3083 -25.2314 -25.2297 -22.7790 -22.6859 -22.6857
   -16.7309 -16.7299 -16.6047 -16.3427 -16.3417 -12.5609 -12.2937 -12.2232
   -12.2084 -11.5831 -11.5176 -10.1269  -9.8279  -9.8196  -9.2749  -8.9763
    -8.8564  -8.7233  -8.7225  -8.6493  -8.5662  -8.5013  -8.4940  -1.7755
     0.6355   0.7301   0.8561   1.0887   1.1862   1.5527   1.6075   1.8504
     2.2980   2.4236   2.4914   2.5294   2.7954   2.9360   3.0853   3.2571
     3.4437

          k =-0.0403 0.1866 0.1866 ( 14945 PWs)   bands (ev):

   -44.2282 -26.4631 -25.3091 -25.2303 -25.2300 -22.7791 -22.6857 -22.6857
   -16.7306 -16.7302 -16.6047 -16.3423 -16.3419 -12.5589 -12.2928 -12.2224
   -12.2186 -11.5620 -11.5417 -10.1275  -9.8230  -9.8224  -9.1804  -8.9228
    -8.8664  -8.7445  -8.7376  -8.6692  -8.6166  -8.5274  -8.5030  -1.8013
     0.6716   0.7890   0.8054   1.1471   1.1487   1.5884   1.6254   1.8344
     2.3421   2.3584   2.4896   2.5440   2.8361   2.8627   3.2083   3.2269
     3.4657

          k =-0.0604 0.1665 0.3934 ( 14937 PWs)   bands (ev):

   -44.2282 -26.4631 -25.3082 -25.2311 -25.2300 -22.7790 -22.6858 -22.6857
   -16.7307 -16.7298 -16.6047 -16.3428 -16.3420 -12.5651 -12.3051 -12.2197
   -12.2089 -11.5702 -11.5177 -10.1276  -9.8259  -9.8207  -9.2522  -8.9642
    -8.8870  -8.7126  -8.6866  -8.6466  -8.5873  -8.5285  -8.4991  -1.7648
     0.6017   0.7660   0.8507   1.0977   1.1638   1.5540   1.6166   1.8288
     2.3059   2.3935   2.4628   2.5110   2.8369   2.9382   3.1247   3.2235
     3.4297

          k = 0.0201 0.2471-0.4337 ( 14929 PWs)   bands (ev):

   -44.2282 -26.4631 -25.3079 -25.2316 -25.2299 -22.7790 -22.6859 -22.6857
   -16.7307 -16.7298 -16.6047 -16.3428 -16.3419 -12.5643 -12.3039 -12.2189
   -12.2068 -11.5720 -11.5158 -10.1273  -9.8276  -9.8204  -9.2907  -8.9899
    -8.8967  -8.7278  -8.6607  -8.6285  -8.5643  -8.5090  -8.4953  -1.7575
     0.5994   0.7519   0.8513   1.0787   1.1756   1.5438   1.6016   1.8388
     2.2995   2.3897   2.4808   2.5140   2.8354   2.9753   3.0707   3.2251
     3.4208

          k =-0.0000 0.2269-0.2269 ( 14955 PWs)   bands (ev):

   -44.2282 -26.4631 -25.3086 -25.2310 -25.2299 -22.7790 -22.6858 -22.6857
   -16.7306 -16.7302 -16.6047 -16.3423 -16.3419 -12.5573 -12.2916 -12.2209
   -12.2153 -11.5657 -11.5378 -10.1269  -9.8262  -9.8213  -9.2572  -8.9630
    -8.8878  -8.7619  -8.6806  -8.6363  -8.5801  -8.5045  -8.4944  -1.7899
     0.6651   0.7596   0.8142   1.1119   1.1716   1.5804   1.5931   1.8590
     2.3128   2.3818   2.5026   2.5412   2.8211   2.9387   3.1015   3.2414
     3.4512

          k =-0.0806 0.3733 0.3733 ( 14896 PWs)   bands (ev):

   -44.2282 -26.4631 -25.3077 -25.2311 -25.2305 -22.7791 -22.6859 -22.6858
   -16.7306 -16.7296 -16.6046 -16.3431 -16.3422 -12.5718 -12.3203 -12.2143
   -12.2063 -11.5612 -11.5075 -10.1284  -9.8244  -9.8221  -9.2642  -8.9794
    -8.8626  -8.7510  -8.6571  -8.6086  -8.6077  -8.5344  -8.4978  -1.7396
     0.5403   0.8090   0.8470   1.1163   1.1195   1.5432   1.6190   1.8106
     2.3004   2.3762   2.3851   2.5313   2.8513   3.0066   3.1265   3.1679
     3.4041

          k = 0.0000 0.4538-0.4538 ( 14920 PWs)   bands (ev):

   -44.2282 -26.4631 -25.3075 -25.2315 -25.2303 -22.7790 -22.6859 -22.6857
   -16.7306 -16.7296 -16.6047 -16.3431 -16.3422 -12.5714 -12.3195 -12.2141
   -12.2048 -11.5628 -11.5059 -10.1282  -9.8259  -9.8214  -9.2844  -8.9927
    -8.8983  -8.7250  -8.6299  -8.6237  -8.5793  -8.5324  -8.4961  -1.7350
     0.5396   0.7953   0.8519   1.0827   1.1494   1.5355   1.6107   1.8138
     2.2955   2.3539   2.4225   2.5298   2.8506   3.0499   3.0617   3.1823
     3.3980

          k = 0.1665 0.1665 0.1665 ( 14980 PWs)   bands (ev):

   -44.2282 -26.4631 -25.3093 -25.2300 -25.2300 -22.7791 -22.6857 -22.6857
   -16.7303 -16.7303 -16.6047 -16.3423 -16.3423 -12.5658 -12.3022 -12.2195
   -12.2195 -11.5470 -11.5470 -10.1282  -9.8215  -9.8215  -9.0956  -8.8760
    -8.8760  -8.7456  -8.7456  -8.7112  -8.6480  -8.5356  -8.5356  -1.7919
[...]

     total cpu time spent up to now is     2881.1 secs

     total energy              =   -1451.77079537 Ry
     estimated scf accuracy    <          4.8E-09 Ry

     iteration #  2     ecut=    60.00 Ry     beta= 0.70
     Davidson diagonalization with overlap
     ethr =  4.95E-12,  avg # of iterations =  4.0

     total cpu time spent up to now is     2887.3 secs

     total energy              =   -1451.77079537 Ry
     estimated scf accuracy    <       0.00000002 Ry

     iteration #  3     ecut=    60.00 Ry     beta= 0.70
     Davidson diagonalization with overlap
     ethr =  4.95E-12,  avg # of iterations =  3.5

     total cpu time spent up to now is     2892.1 secs

     total energy              =   -1451.77079537 Ry
     estimated scf accuracy    <          2.0E-09 Ry

     iteration #  4     ecut=    60.00 Ry     beta= 0.70
     Davidson diagonalization with overlap
     ethr =  2.02E-12,  avg # of iterations =  3.0

     total cpu time spent up to now is     2896.1 secs

     total energy              =   -1451.77079537 Ry
     estimated scf accuracy    <          1.1E-09 Ry

     iteration #  5     ecut=    60.00 Ry     beta= 0.70
     Davidson diagonalization with overlap
     ethr =  1.14E-12,  avg # of iterations =  2.0

     total cpu time spent up to now is     2899.7 secs

     total energy              =   -1451.77079537 Ry
     estimated scf accuracy    <          4.4E-10 Ry

     iteration #  6     ecut=    60.00 Ry     beta= 0.70
     Davidson diagonalization with overlap
     ethr =  4.53E-13,  avg # of iterations =  2.6

     total cpu time spent up to now is     2903.5 secs

     total energy              =   -1451.77079537 Ry
     estimated scf accuracy    <          1.7E-10 Ry

     iteration #  7     ecut=    60.00 Ry     beta= 0.70
     Davidson diagonalization with overlap
     ethr =  1.73E-13,  avg # of iterations =  2.0

     total cpu time spent up to now is     2907.3 secs

     total energy              =   -1451.77079537 Ry
     estimated scf accuracy    <          6.3E-11 Ry

     iteration #  8     ecut=    60.00 Ry     beta= 0.70
     Davidson diagonalization with overlap
     ethr =  1.00E-13,  avg # of iterations =  2.0

     total cpu time spent up to now is     2910.9 secs

     total energy              =   -1451.77079537 Ry
     estimated scf accuracy    <          1.9E-11 Ry

     iteration #  9     ecut=    60.00 Ry     beta= 0.70
     Davidson diagonalization with overlap
     ethr =  1.00E-13,  avg # of iterations =  1.1

     total cpu time spent up to now is     2914.2 secs

     total energy              =   -1451.77079537 Ry
     estimated scf accuracy    <          2.3E-12 Ry

     iteration # 10     ecut=    60.00 Ry     beta= 0.70
     Davidson diagonalization with overlap
     ethr =  1.00E-13,  avg # of iterations =  1.0

     total cpu time spent up to now is     2917.6 secs

     End of self-consistent calculation

          k = 0.0000 0.0000 0.0000 ( 14961 PWs)   bands (ev):

   -44.1999 -26.3595 -25.2953 -25.2086 -25.2086 -22.7493 -22.6546 -22.6546
   -16.6932 -16.6932 -16.5687 -16.3062 -16.3062 -12.5200 -12.2364 -12.1989
   -12.1989 -11.5263 -11.5263 -10.0252  -9.7197  -9.7197  -9.1053  -8.8570
    -8.8570  -8.7724  -8.7148  -8.7148  -8.6224  -8.4763  -8.4763  -1.8102
     0.7948   0.8122   0.8122   1.2030   1.2030   1.6560   1.6560   1.8813
     2.4004   2.4004   2.4861   2.7265   2.8228   2.8228   3.3060   3.3060
     3.5463

          k =-0.0206-0.0206 0.2072 ( 14971 PWs)   bands (ev):

   -44.1999 -26.3595 -25.2947 -25.2092 -25.2086 -22.7493 -22.6547 -22.6546
   -16.6933 -16.6929 -16.5686 -16.3066 -16.3062 -12.5224 -12.2462 -12.1965
   -12.1916 -11.5344 -11.5088 -10.0251  -9.7219  -9.7186  -9.1832  -8.9070
    -8.8498  -8.7529  -8.7024  -8.6535  -8.5853  -8.4847  -8.4746  -1.7851
     0.7441   0.7945   0.8415   1.1736   1.2075   1.6339   1.6484   1.8855
     2.3617   2.4207   2.5128   2.6435   2.8265   2.9077   3.2189   3.3024
     3.5200

          k =-0.0411-0.0411 0.4145 ( 14940 PWs)   bands (ev):

   -44.1999 -26.3595 -25.2937 -25.2103 -25.2086 -22.7493 -22.6548 -22.6546
   -16.6935 -16.6925 -16.5686 -16.3071 -16.3062 -12.5276 -12.2576 -12.1946
   -12.1792 -11.5478 -11.4819 -10.0251  -9.7254  -9.7167  -9.2751  -8.9631
    -8.8438  -8.7056  -8.6969  -8.6248  -8.5381  -8.4720  -8.4690  -1.7430
     0.6690   0.7616   0.8915   1.1224   1.2200   1.5882   1.6417   1.8831
     2.3313   2.4605   2.5249   2.5696   2.8323   2.9722   3.1218   3.2942
     3.4820

          k =-0.0411 0.1867 0.1867 ( 14945 PWs)   bands (ev):

   -44.1999 -26.3595 -25.2945 -25.2092 -25.2089 -22.7493 -22.6547 -22.6546
   -16.6932 -16.6928 -16.5686 -16.3067 -16.3064 -12.5263 -12.2566 -12.1936
   -12.1899 -11.5265 -11.5060 -10.0256  -9.7202  -9.7197  -9.1788  -8.9073
    -8.8523  -8.7273  -8.7127  -8.6433  -8.5891  -8.5026  -8.4788  -1.7699
     0.7055   0.8227   0.8391   1.1817   1.1827   1.6230   1.6613   1.8667
     2.3773   2.3925   2.5239   2.5843   2.8734   2.8996   3.2450   3.2648
     3.5045

          k =-0.0617 0.1661 0.3939 ( 14937 PWs)   bands (ev):

   -44.1999 -26.3595 -25.2936 -25.2100 -25.2089 -22.7493 -22.6548 -22.6546
   -16.6933 -16.6924 -16.5686 -16.3072 -16.3064 -12.5313 -12.2697 -12.1910
   -12.1799 -11.5348 -11.4820 -10.0259  -9.7233  -9.7178  -9.2517  -8.9500
    -8.8750  -8.6923  -8.6640  -8.6211  -8.5599  -8.5015  -8.4728  -1.7324
     0.6355   0.7987   0.8858   1.1314   1.1974   1.5894   1.6522   1.8615
     2.3391   2.4283   2.5009   2.5460   2.8738   2.9744   3.1615   3.2605
     3.4682

          k = 0.0206 0.2484-0.4351 ( 14929 PWs)   bands (ev):

   -44.1999 -26.3595 -25.2932 -25.2105 -25.2088 -22.7492 -22.6548 -22.6546
   -16.6933 -16.6924 -16.5686 -16.3073 -16.3064 -12.5302 -12.2685 -12.1903
   -12.1777 -11.5367 -11.4801 -10.0256  -9.7250  -9.7175  -9.2912  -8.9766
    -8.8853  -8.7083  -8.6346  -8.6056  -8.5363  -8.4814  -8.4677  -1.7247
     0.6332   0.7839   0.8865   1.1121   1.2091   1.5795   1.6363   1.8714
     2.3322   2.4261   2.5179   2.5492   2.8722   3.0116   3.1074   3.2620
     3.4589

          k =-0.0000 0.2278-0.2278 ( 14955 PWs)   bands (ev):

   -44.1999 -26.3595 -25.2939 -25.2099 -25.2087 -22.7493 -22.6547 -22.6546
   -16.6932 -16.6928 -16.5686 -16.3067 -16.3064 -12.5243 -12.2553 -12.1921
   -12.1863 -11.5302 -11.5021 -10.0250  -9.7236  -9.7185  -9.2571  -8.9485
    -8.8759  -8.7440  -8.6542  -8.6101  -8.5528  -8.4798  -8.4677  -1.7580
     0.6991   0.7916   0.8483   1.1458   1.2058   1.6159   1.6272   1.8918
     2.3460   2.4183   2.5369   2.5812   2.8581   2.9766   3.1374   3.2789
     3.4894

          k =-0.0823 0.3733 0.3733 ( 14896 PWs)   bands (ev):

   -44.1999 -26.3595 -25.2931 -25.2100 -25.2093 -22.7493 -22.6548 -22.6547
   -16.6932 -16.6922 -16.5686 -16.3076 -16.3067 -12.5371 -12.2861 -12.1854
   -12.1775 -11.5259 -11.4717 -10.0268  -9.7216  -9.7194  -9.2637  -8.9669
    -8.8501  -8.7261  -8.6379  -8.5851  -8.5813  -8.5056  -8.4697  -1.7068
     0.5743   0.8434   0.8819   1.1506   1.1515   1.5791   1.6559   1.8434
     2.3326   2.4134   2.4176   2.5661   2.8873   3.0432   3.1637   3.2035
     3.4427

          k = 0.0000 0.4556-0.4556 ( 14920 PWs)   bands (ev):

   -44.1999 -26.3595 -25.2929 -25.2104 -25.2092 -22.7493 -22.6548 -22.6547
   -16.6932 -16.6922 -16.5686 -16.3076 -16.3067 -12.5364 -12.2852 -12.1853
   -12.1758 -11.5275 -11.4701 -10.0266  -9.7232  -9.7186  -9.2845  -8.9798
    -8.8868  -8.7023  -8.6081  -8.6001  -8.5527  -8.5037  -8.4677  -1.7020
     0.5736   0.8290   0.8871   1.1157   1.1824   1.5717   1.6470   1.8465
     2.3271   2.3903   2.4570   2.5644   2.8866   3.0865   3.0985   3.2185
     3.4364

          k = 0.1661 0.1661 0.1661 ( 14980 PWs)   bands (ev):

   -44.1999 -26.3595 -25.2947 -25.2089 -25.2089 -22.7494 -22.6546 -22.6546
   -16.6929 -16.6929 -16.5686 -16.3067 -16.3067 -12.5330 -12.2665 -12.1908
   -12.1908 -11.5115 -11.5115 -10.0263  -9.7187  -9.7187  -9.0939  -8.8580
    -8.8580  -8.7227  -8.7227  -8.6949  -8.6207  -8.5112  -8.5112  -1.7605
     0.6640   0.8534   0.8534   1.1794   1.1794   1.6572   1.6572   1.8169
     2.3941   2.3941   2.5011   2.5415   2.8925   2.8925   3.2758   3.2758
     3.4995

          k = 0.1455 0.1455 0.3733 ( 14929 PWs)   bands (ev):

   -44.1999 -26.3595 -25.2939 -25.2096 -25.2089 -22.7494 -22.6547 -22.6546
   -16.6931 -16.6925 -16.5686 -16.3073 -16.3067 -12.5393 -12.2796 -12.1895
   -12.1802 -11.5238 -11.4829 -10.0266  -9.7212  -9.7168  -9.1732  -8.9086
    -8.8483  -8.7077  -8.6902  -8.6436  -8.5831  -8.5240  -8.5119  -1.7241
     0.5881   0.8311   0.9053   1.1435   1.1874   1.6173   1.6512   1.8148
     2.3575   2.4212   2.4659   2.5195   2.8996   2.9684   3.1973   3.2666
     3.4653

          k = 0.2278 0.2278-0.4556 ( 14918 PWs)   bands (ev):

   -44.1999 -26.3595 -25.2932 -25.2104 -25.2089 -22.7493 -22.6548 -22.6546
   -16.6931 -16.6925 -16.5686 -16.3073 -16.3067 -12.5364 -12.2782 -12.1880
   -12.1765 -11.5261 -11.4795 -10.0261  -9.7243  -9.7167  -9.2695  -8.9643
    -8.8460  -8.7034  -8.7005  -8.5873  -8.5465  -8.4954  -8.4745  -1.7112
     0.5847   0.8051   0.9034   1.1197   1.1977   1.5950   1.6230   1.8460
     2.3520   2.3869   2.5020   2.5376   2.9113   3.0118   3.1170   3.2501
     3.4478

          k = 0.2072 0.2072-0.2484 ( 14928 PWs)   bands (ev):

   -44.1999 -26.3595 -25.2936 -25.2101 -25.2089 -22.7493 -22.6548 -22.6546
   -16.6929 -16.6929 -16.5686 -16.3067 -16.3067 -12.5278 -12.2654 -12.1880
   -12.1850 -11.5149 -11.5058 -10.0255  -9.7237  -9.7184  -9.2722  -8.9641
    -8.8490  -8.7273  -8.7050  -8.5708  -8.5526  -8.4881  -8.4594  -1.7402
     0.6585   0.8101   0.8518   1.1427   1.1906   1.6051   1.6276   1.8796
     2.3636   2.3827   2.5319   2.5499   2.9115   2.9836   3.1284   3.2498
     3.4701

          k = 0.1250 0.3528 0.3528 ( 14932 PWs)   bands (ev):

   -44.1999 -26.3595 -25.2936 -25.2095 -25.2093 -22.7494 -22.6547 -22.6547
   -16.6929 -16.6923 -16.5686 -16.3076 -16.3070 -12.5473 -12.2941 -12.1840
   -12.1780 -11.5122 -11.4762 -10.0273  -9.7185  -9.7185  -9.1679  -8.9094
    -8.8524  -8.7331  -8.6648  -8.6029  -8.5940  -8.5449  -8.5206  -1.6965
     0.5179   0.8729   0.9105   1.1497   1.1627   1.6006   1.6554   1.7882
     2.3487   2.3801   2.4234   2.5358   2.9351   3.0251   3.1901   3.2197
     3.4400

          k = 0.2072 0.4351-0.4762 ( 14931 PWs)   bands (ev):

   -44.1999 -26.3595 -25.2930 -25.2102 -25.2092 -22.7493 -22.6548 -22.6547
   -16.6929 -16.6923 -16.5686 -16.3076 -16.3070 -12.5443 -12.2938 -12.1826
   -12.1758 -11.5115 -11.4751 -10.0271  -9.7219  -9.7176  -9.2453  -8.9523
    -8.8758  -8.7016  -8.6587  -8.5848  -8.5520  -8.5329  -8.4839  -1.6881
     0.5198   0.8558   0.9040   1.1268   1.1743   1.5832   1.6343   1.8164
     2.3164   2.3800   2.4470   2.5510   2.9541   3.0701   3.1162   3.1999
     3.4259

          k = 0.1867 0.4145-0.2690 ( 14903 PWs)   bands (ev):

   -44.1999 -26.3595 -25.2930 -25.2104 -25.2091 -22.7493 -22.6548 -22.6546
   -16.6931 -16.6925 -16.5686 -16.3073 -16.3067 -12.5340 -12.2798 -12.1853
   -12.1787 -11.5181 -11.4853 -10.0262  -9.7237  -9.7184  -9.2872  -8.9783
    -8.8866  -8.6959  -8.6628  -8.5687  -8.5461  -8.4994  -8.4613  -1.7107
     0.5953   0.8220   0.8762   1.1178   1.1885   1.5783   1.6359   1.8560
     2.3282   2.4013   2.4715   2.5586   2.9503   3.0104   3.1221   3.2133
     3.4411

          k = 0.2895-0.3939-0.3939 ( 14921 PWs)   bands (ev):

   -44.1999 -26.3595 -25.2929 -25.2102 -25.2093 -22.7493 -22.6548 -22.6547
   -16.6929 -16.6923 -16.5686 -16.3076 -16.3070 -12.5430 -12.2946 -12.1805
   -12.1774 -11.5071 -11.4784 -10.0271  -9.7219  -9.7183  -9.2629  -8.9668
    -8.8493  -8.7245  -8.6653  -8.5794  -8.5588  -8.5090  -8.4706  -1.6878
     0.5239   0.8732   0.8810   1.1398   1.1557   1.5798   1.6348   1.8248
     2.3028   2.4103   2.4110   2.5632   2.9761   3.0620   3.1460   3.1517
     3.4231

          k = 0.3322 0.3322 0.3322 ( 14947 PWs)   bands (ev):

   -44.1999 -26.3594 -25.2937 -25.2093 -25.2093 -22.7495 -22.6547 -22.6547
   -16.6925 -16.6925 -16.5686 -16.3076 -16.3076 -12.5595 -12.3066 -12.1782
   -12.1782 -11.4857 -11.4857 -10.0280  -9.7168  -9.7168  -9.0825  -8.8589
    -8.8589  -8.7417  -8.7417  -8.6180  -8.5639  -8.5634  -8.5634  -1.6701
     0.4371   0.9244   0.9244   1.1545   1.1545   1.6323   1.6323   1.7230
     2.2917   2.4040   2.4040   2.5286   3.0277   3.0277   3.1911   3.1911
     3.4217

          k = 0.4145 0.4145-0.4968 ( 14922 PWs)   bands (ev):

   -44.1999 -26.3594 -25.2933 -25.2098 -25.2093 -22.7494 -22.6548 -22.6547
   -16.6925 -16.6925 -16.5686 -16.3076 -16.3076 -12.5571 -12.3065 -12.1779
   -12.1760 -11.4871 -11.4827 -10.0278  -9.7190  -9.7167  -9.1661  -8.9099
    -8.8506  -8.7284  -8.7028  -8.5890  -8.5688  -8.5536  -8.5210  -1.6646
     0.4383   0.9060   0.9242   1.1438   1.1596   1.6050   1.6178   1.7608
     2.2703   2.4020   2.4209   2.5399   3.0486   3.0611   3.1328   3.1663
     3.4115

     highest occupied level (ev):     3.5463

!    total energy              =   -1451.77079537 Ry
     total all-electron energy =     -1451.770795 Ry
     estimated scf accuracy    <          5.0E-13 Ry

     The total energy is the sum of the following terms:
     one-electron contribution =    -423.61245455 Ry
     hartree contribution      =     273.47279069 Ry
     xc contribution           =    -119.66209346 Ry
     ewald contribution        =    -359.13375560 Ry
     one-center paw contrib.   =    -822.83528245 Ry

     convergence has been achieved in  10 iterations

     Forces acting on atoms (cartesian axes, Ry/au):

     atom    1 type  1   force =    -0.00001008   -0.00001008   -0.00001008
     atom    2 type  1   force =     0.00000463    0.00000463   -0.00001154
     atom    3 type  1   force =     0.00000463   -0.00001154    0.00000463
     atom    4 type  1   force =    -0.00001154    0.00000463    0.00000463
     atom    5 type  2   force =    -0.00000303   -0.00000303   -0.00000303
     atom    6 type  3   force =    -0.00001071   -0.00001071   -0.00001071
     atom    7 type  4   force =    -0.00000502    0.00001260    0.00001260
     atom    8 type  4   force =     0.00000556    0.00000019    0.00000019
     atom    9 type  4   force =     0.00001260   -0.00000502    0.00001260
     atom   10 type  4   force =     0.00000019    0.00000556    0.00000019
     atom   11 type  4   force =     0.00001260    0.00001260   -0.00000502
     atom   12 type  4   force =     0.00000019    0.00000019    0.00000556

     Total force =     0.000048     Total SCF correction =     0.000002


     Computing stress (Cartesian axis) and pressure

          total   stress  (Ry/bohr**3)                   (kbar)     P=        0.00
   0.00000003  -0.00000001  -0.00000001            0.00       -0.00       -0.00
  -0.00000001   0.00000003  -0.00000001           -0.00        0.00       -0.00
  -0.00000001  -0.00000001   0.00000003           -0.00       -0.00        0.00

     Message from routine bfgs:
     history already reset at previous step: exiting
     Energy error            =      3.0E-09 Ry
     Gradient error          =      1.3E-05 Ry/Bohr
     Cell gradient error     =      4.0E-03 kbar

     bfgs failed after  26 scf cycles and  25 bfgs steps, convergence not achieved
     (criteria: energy <  1.0E-04 Ry, force <  1.0E-05 Ry/Bohr, cell <  5.0E-01 kbar)

     End of BFGS Geometry Optimization

     Final enthalpy           =   -1451.7707953727 Ry

     File ./K4ZrSnO6.bfgs deleted, as requested
Begin final coordinates
     new unit-cell volume =   1888.01421 a.u.^3 (   279.77484 Ang^3 )
     density =      2.74399 g/cm^3

CELL_PARAMETERS (angstrom)
   6.615680924   0.729098023   0.729098023
   0.729098023   6.615680924   0.729098023
   0.729098023   0.729098023   6.615680924

ATOMIC_POSITIONS (angstrom)
K            -0.0749073834       -0.0749073834       -0.0749073834
K             4.5351540928        4.5351540928        0.9692519863
K             4.5351540928        0.9692519863        4.5351540928
K             0.9692519863        4.5351540928        4.5351540928
Zr            2.5361178867        2.5361178867        2.5361178867
Sn            4.3779821341        4.3779821341        4.3779821341
O             4.4193151185        2.3826725268        2.3826725268
O             1.7991865425       -1.8204843095       -1.8204843095
O             2.3826725268        4.4193151185        2.3826725268
O            -1.8204843095        1.7991865425       -1.8204843095
O             2.3826725268        2.3826725268        4.4193151185
O            -1.8204843095       -1.8204843095        1.7991865425
End final coordinates



     Writing config-only to output data dir ./K4ZrSnO6.save/

     Writing all to output data dir ./K4ZrSnO6.save/

     init_run     :     16.44s CPU     16.59s WALL (       1 calls)
     electrons    :   1696.42s CPU   1749.81s WALL (      26 calls)
     update_pot   :    413.36s CPU    414.47s WALL (      25 calls)
     forces       :    245.23s CPU    246.70s WALL (      26 calls)
     stress       :    488.37s CPU    492.87s WALL (      26 calls)

     Called by init_run:
     wfcinit      :      2.45s CPU      2.50s WALL (       1 calls)
     potinit      :      4.52s CPU      4.55s WALL (       1 calls)
     hinit0       :      9.12s CPU      9.15s WALL (       1 calls)

     Called by electrons:
     c_bands      :   1121.63s CPU   1142.33s WALL (     413 calls)
     sum_band     :    259.38s CPU    276.03s WALL (     413 calls)
     v_of_rho     :     17.81s CPU     18.39s WALL (     421 calls)
     newd         :    104.74s CPU    116.55s WALL (     421 calls)
     PAW_pot      :    222.52s CPU    224.19s WALL (     446 calls)
     mix_rho      :      2.23s CPU      2.35s WALL (     413 calls)

     Called by c_bands:
     init_us_2    :     18.16s CPU     18.72s WALL (   17176 calls)
     init_us_2:cp :     18.08s CPU     18.68s WALL (   17176 calls)
     cegterg      :   1061.41s CPU   1081.13s WALL (    7847 calls)

     Called by *egterg:
     cdiaghg      :    227.17s CPU    230.10s WALL (   28231 calls)
     h_psi        :    579.53s CPU    592.66s WALL (   29067 calls)
     s_psi        :     64.26s CPU     64.83s WALL (   29067 calls)
     g_psi        :     10.66s CPU     10.73s WALL (   21201 calls)

     Called by h_psi:
     h_psi:calbec :     70.51s CPU     73.15s WALL (   29067 calls)
     vloc_psi     :    441.81s CPU    451.80s WALL (   29067 calls)
     add_vuspsi   :     64.17s CPU     64.67s WALL (   29067 calls)

     General routines
     calbec       :    109.42s CPU    113.78s WALL (   39859 calls)
     fft          :     14.84s CPU     15.78s WALL (    6114 calls)
     ffts         :      0.70s CPU      0.73s WALL (     834 calls)
     fftw         :    465.23s CPU    475.66s WALL ( 2329321 calls)
     interpolate  :      1.22s CPU      1.31s WALL (     421 calls)
     davcio       :      0.00s CPU      0.15s WALL (      19 calls)

     Parallel routines

     PWSCF        :  48m 4.20s CPU  49m10.41s WALL


   This run was terminated on:   4:25:55  30Nov2025            

=------------------------------------------------------------------------------=
   JOB DONE.
=------------------------------------------------------------------------------=
STOP 3
STOP 3
STOP 3
STOP 3
STOP 3
STOP 3
STOP 3
STOP 3
STOP 3
STOP 3
STOP 3
STOP 3
STOP 3
STOP 3
STOP 3
--------------------------------------------------------------------------
Primary job  terminated normally, but 1 process returned
a non-zero exit code. Per user-direction, the job has been aborted.
--------------------------------------------------------------------------
STOP 3
--------------------------------------------------------------------------
mpirun detected that one or more processes exited with non-zero status, thus causing
the job to be terminated. The first process to do so was:

  Process name: [[26026,1],0]
  Exit code:    3
--------------------------------------------------------------------------
