
     Program PWSCF v.7.1 starts on 30Nov2025 at  4:31:18 

     This program is part of the open-source Quantum ESPRESSO suite
     for quantum simulation of materials; please cite
         "P. Giannozzi et al., J. Phys.:Condens. Matter 21 395502 (2009);
         "P. Giannozzi et al., J. Phys.:Condens. Matter 29 465901 (2017);
         "P. Giannozzi et al., J. Chem. Phys. 152 154105 (2020);
          URL http://www.quantum-espresso.org", 
     in publications or presentations arising from this work. More details at
     http://www.quantum-espresso.org/quote

     Parallel version (MPI & OpenMP), running on      16 processor cores
     Number of MPI processes:                16
     Threads/MPI process:                     1

     MPI processes distributed on     1 nodes
     101963 MiB available memory on the printing compute node when the environment starts

     Waiting for input...
     Reading input from standard input

     Current dimensions of program PWSCF are:
     Max number of different atomic species (ntypx) = 10
     Max number of k-points (npk) =  40000
     Max angular momentum in pseudopotentials (lmaxx) =  4

     File ./K4ZrSnO6.update deleted, as requested
     Message from routine read_pp_mesh:
     mismatch in mesh size, discarding the one in header
     Message from routine read_pp_mesh:
     mismatch in mesh size, discarding the one in header
     Message from routine read_pp_mesh:
     mismatch in mesh size, discarding the one in header
     Message from routine read_pp_mesh:
     mismatch in mesh size, discarding the one in header
     Message from routine setup:
     using ibrav=0 with symmetry is DISCOURAGED, use correct ibrav instead

     R & G space division:  proc/nbgrp/npool/nimage =      16
     Subspace diagonalization in iterative solution of the eigenvalue problem:
     a serial algorithm will be used


     Parallelization info
     --------------------
     sticks:   dense  smooth     PW     G-vecs:    dense   smooth      PW
     Min         372     186     51                20954     7411    1067
     Max         374     187     52                20955     7413    1069
     Sum        5967    2979    821               335275   118591   17087

     Using Slab Decomposition



     bravais-lattice index     =            0
     lattice parameter (alat)  =      12.6528  a.u.
     unit-cell volume          =    1888.0142 (a.u.)^3
     number of atoms/cell      =           12
     number of atomic types    =            4
     number of electrons       =        98.00
     number of Kohn-Sham states=           49
     kinetic-energy cutoff     =      60.0000  Ry
     charge density cutoff     =     480.0000  Ry
     scf convergence threshold =      1.0E-10
     mixing beta               =       0.7000
     number of iterations used =            8  plain     mixing
     energy convergence thresh.=      1.0E-04
     force convergence thresh. =      1.0E-05
     press convergence thresh. =      5.0E-01
     Exchange-correlation= SLA PW PBX PBC
                           (   1   4   3   4   0   0   0)
     nstep                     =          250


     celldm(1)=  12.652757  celldm(2)=   0.000000  celldm(3)=   0.000000
     celldm(4)=   0.000000  celldm(5)=   0.000000  celldm(6)=   0.000000

     crystal axes: (cart. coord. in units of alat)
               a(1) = (   0.988071   0.108893   0.108893 )  
               a(2) = (   0.108893   0.988071   0.108893 )  
               a(3) = (   0.108893   0.108893   0.988071 )  

     reciprocal axes: (cart. coord. in units 2 pi/alat)
               b(1) = (  1.034712 -0.102713 -0.102713 )  
               b(2) = ( -0.102713  1.034712 -0.102713 )  
               b(3) = ( -0.102713 -0.102713  1.034712 )  


     PseudoPot. # 1 for K  read from file:
     ./K.upf
     MD5 check sum: 9356cfae17991a8ac93a0af773ad5d28
     Pseudo is Projector augmented-wave + core cor, Zval =  9.0
     Generated using ATOMPAW code
     Shape of augmentation charge: SINC**2
     Using radial grid of 2342 points,  5 beta functions with: 
                l(1) =   0
                l(2) =   0
                l(3) =   1
                l(4) =   1
                l(5) =   2
     Q(r) pseudized with 0 coefficients 


     PseudoPot. # 2 for Zr read from file:
     ./Zr.upf
     MD5 check sum: 10be9e9715c592225794718718b87d8f
     Pseudo is Projector augmented-wave + core cor, Zval = 12.0
     Generated using ATOMPAW code
     Shape of augmentation charge: BESSEL
     Using radial grid of 2342 points,  6 beta functions with: 
                l(1) =   0
                l(2) =   0
                l(3) =   1
                l(4) =   1
                l(5) =   2
                l(6) =   2
     Q(r) pseudized with 0 coefficients 


     PseudoPot. # 3 for Sn read from file:
     ./Sn.upf
     MD5 check sum: f8d5c2bd65c7f969f3af92fc3a9f2821
     Pseudo is Projector augmented-wave + core cor, Zval = 14.0
     Generated using ATOMPAW code
     Shape of augmentation charge: BESSEL
     Using radial grid of 2342 points,  6 beta functions with: 
                l(1) =   0
                l(2) =   0
                l(3) =   1
                l(4) =   1
                l(5) =   2
                l(6) =   2
     Q(r) pseudized with 0 coefficients 


     PseudoPot. # 4 for O  read from file:
     ./O.upf
     MD5 check sum: 45fbb1c0d1f8837f1e386a2947d3aa26
     Pseudo is Projector augmented-wave + core cor, Zval =  6.0
     Generated using ATOMPAW code
     Shape of augmentation charge: SINC**2
     Using radial grid of 2342 points,  4 beta functions with: 
                l(1) =   0
                l(2) =   0
                l(3) =   1
                l(4) =   1
     Q(r) pseudized with 0 coefficients 


     atomic species   valence    mass     pseudopotential
        K              9.00    39.09800     K ( 1.00)
        Zr            12.00    91.22400     Zr( 1.00)
        Sn            14.00   118.71000     Sn( 1.00)
        O              6.00    15.99900     O ( 1.00)

      6 Sym. Ops. (no inversion) found



   Cartesian axes

     site n.     atom                  positions (alat units)
         1           K   tau(   1) = (  -0.0111876  -0.0111876  -0.0111876  )
         2           K   tau(   2) = (   0.6773385   0.6773385   0.1447606  )
         3           K   tau(   3) = (   0.6773385   0.1447606   0.6773385  )
         4           K   tau(   4) = (   0.1447606   0.6773385   0.6773385  )
         5           Zr  tau(   5) = (   0.3787766   0.3787766   0.3787766  )
         6           Sn  tau(   6) = (   0.6538644   0.6538644   0.6538644  )
         7           O   tau(   7) = (   0.6600376   0.3558591   0.3558591  )
         8           O   tau(   8) = (   0.2687137  -0.2718946  -0.2718946  )
         9           O   tau(   9) = (   0.3558591   0.6600376   0.3558591  )
        10           O   tau(  10) = (  -0.2718946   0.2687137  -0.2718946  )
        11           O   tau(  11) = (   0.3558591   0.3558591   0.6600376  )
        12           O   tau(  12) = (  -0.2718946  -0.2718946   0.2687137  )

     number of k points=    19
                       cart. coord. in units 2pi/alat
        k(    1) = (   0.0000000   0.0000000   0.0000000), wk =   0.0160000
        k(    2) = (  -0.0205427  -0.0205427   0.2069425), wk =   0.0960000
        k(    3) = (  -0.0410853  -0.0410853   0.4138850), wk =   0.0960000
        k(    4) = (  -0.0410853   0.1863998   0.1863998), wk =   0.0960000
        k(    5) = (  -0.0616280   0.1658571   0.3933423), wk =   0.1920000
        k(    6) = (   0.0205427   0.2480278  -0.4344276), wk =   0.1920000
        k(    7) = (  -0.0000000   0.2274851  -0.2274851), wk =   0.0960000
        k(    8) = (  -0.0821707   0.3727996   0.3727996), wk =   0.0960000
        k(    9) = (   0.0000000   0.4549703  -0.4549703), wk =   0.0960000
        k(   10) = (   0.1658571   0.1658571   0.1658571), wk =   0.0320000
        k(   11) = (   0.1453145   0.1453145   0.3727996), wk =   0.0960000
        k(   12) = (   0.2274851   0.2274851  -0.4549703), wk =   0.0960000
        k(   13) = (   0.2069425   0.2069425  -0.2480278), wk =   0.0960000
        k(   14) = (   0.1247718   0.3522570   0.3522570), wk =   0.0960000
        k(   15) = (   0.2069425   0.4344276  -0.4755130), wk =   0.1920000
        k(   16) = (   0.1863998   0.4138850  -0.2685705), wk =   0.1920000
        k(   17) = (   0.2891132  -0.3933423  -0.3933423), wk =   0.0960000
        k(   18) = (   0.3317143   0.3317143   0.3317143), wk =   0.0320000
        k(   19) = (   0.4138850   0.4138850  -0.4960556), wk =   0.0960000

     Dense  grid:   335275 G-vectors     FFT dimensions: (  90,  90,  90)

     Smooth grid:   118591 G-vectors     FFT dimensions: (  64,  64,  64)

     Estimated max dynamical RAM per process >     108.47 MB

     Estimated total dynamical RAM >       1.69 GB

     Initial potential from superposition of free atoms

     starting charge      97.9154, renormalised to      98.0000
     Starting wfcs are  136 randomized atomic wfcs
     Checking if some PAW data can be deallocated... 

     total cpu time spent up to now is       17.7 secs

     per-process dynamical memory:    79.4 Mb

     Self-consistent Calculation

     iteration #  1     ecut=    60.00 Ry     beta= 0.70
     Davidson diagonalization with overlap
     ethr =  1.00E-02,  avg # of iterations =  1.1

     total cpu time spent up to now is       21.0 secs

     total energy              =   -1448.96653072 Ry
     estimated scf accuracy    <       5.16714181 Ry

     iteration #  2     ecut=    60.00 Ry     beta= 0.70
     Davidson diagonalization with overlap
     ethr =  5.27E-03,  avg # of iterations =  6.3

     total cpu time spent up to now is       27.4 secs

     total energy              =   -1446.15309478 Ry
     estimated scf accuracy    <      31.27693881 Ry

     iteration #  3     ecut=    60.00 Ry     beta= 0.70
     Davidson diagonalization with overlap
     ethr =  5.27E-03,  avg # of iterations =  5.1

     total cpu time spent up to now is       33.0 secs

     total energy              =   -1451.47307287 Ry
     estimated scf accuracy    <       0.96325492 Ry

     iteration #  4     ecut=    60.00 Ry     beta= 0.70
     Davidson diagonalization with overlap
     ethr =  9.83E-04,  avg # of iterations =  6.4

     total cpu time spent up to now is       37.9 secs

     total energy              =   -1451.76611424 Ry
     estimated scf accuracy    <       0.44233486 Ry

     iteration #  5     ecut=    60.00 Ry     beta= 0.70
     Davidson diagonalization with overlap
     ethr =  4.51E-04,  avg # of iterations =  3.2

     total cpu time spent up to now is       41.7 secs

     total energy              =   -1451.72674271 Ry
     estimated scf accuracy    <       0.26735020 Ry

     iteration #  6     ecut=    60.00 Ry     beta= 0.70
     Davidson diagonalization with overlap
     ethr =  2.73E-04,  avg # of iterations =  3.2

     total cpu time spent up to now is       45.8 secs

     total energy              =   -1451.76000421 Ry
     estimated scf accuracy    <       0.02797691 Ry

     iteration #  7     ecut=    60.00 Ry     beta= 0.70
     Davidson diagonalization with overlap
     ethr =  2.85E-05,  avg # of iterations =  4.4

     total cpu time spent up to now is       50.9 secs

     total energy              =   -1451.76802660 Ry
     estimated scf accuracy    <       0.03008947 Ry

     iteration #  8     ecut=    60.00 Ry     beta= 0.70
     Davidson diagonalization with overlap
     ethr =  2.85E-05,  avg # of iterations =  3.2

     total cpu time spent up to now is       54.9 secs

     total energy              =   -1451.76998406 Ry
     estimated scf accuracy    <       0.00317716 Ry

     iteration #  9     ecut=    60.00 Ry     beta= 0.70
     Davidson diagonalization with overlap
     ethr =  3.24E-06,  avg # of iterations =  3.7

     total cpu time spent up to now is       59.5 secs

     total energy              =   -1451.77057054 Ry
     estimated scf accuracy    <       0.00007114 Ry

     iteration # 10     ecut=    60.00 Ry     beta= 0.70
     Davidson diagonalization with overlap
     ethr =  7.26E-08,  avg # of iterations =  4.0

     total cpu time spent up to now is       65.1 secs

     total energy              =   -1451.77059164 Ry
     estimated scf accuracy    <       0.00005135 Ry

     iteration # 11     ecut=    60.00 Ry     beta= 0.70
     Davidson diagonalization with overlap
     ethr =  5.24E-08,  avg # of iterations =  3.1

     total cpu time spent up to now is       69.3 secs

     total energy              =   -1451.77059895 Ry
     estimated scf accuracy    <       0.00000068 Ry

     iteration # 12     ecut=    60.00 Ry     beta= 0.70
     Davidson diagonalization with overlap
     ethr =  6.98E-10,  avg # of iterations =  4.2

     total cpu time spent up to now is       75.2 secs

     total energy              =   -1451.77059931 Ry
     estimated scf accuracy    <       0.00000013 Ry

     iteration # 13     ecut=    60.00 Ry     beta= 0.70
     Davidson diagonalization with overlap
     ethr =  1.30E-10,  avg # of iterations =  2.9

     total cpu time spent up to now is       79.3 secs

     total energy              =   -1451.77059933 Ry
     estimated scf accuracy    <          6.8E-09 Ry

     iteration # 14     ecut=    60.00 Ry     beta= 0.70
     Davidson diagonalization with overlap
     ethr =  6.96E-12,  avg # of iterations =  3.9

     total cpu time spent up to now is       85.2 secs

     total energy              =   -1451.77059933 Ry
     estimated scf accuracy    <          2.7E-09 Ry

     iteration # 15     ecut=    60.00 Ry     beta= 0.70
     Davidson diagonalization with overlap
     ethr =  2.75E-12,  avg # of iterations =  2.0

     total cpu time spent up to now is       89.2 secs

     total energy              =   -1451.77059933 Ry
     estimated scf accuracy    <          1.5E-10 Ry

     iteration # 16     ecut=    60.00 Ry     beta= 0.70
     Davidson diagonalization with overlap
     ethr =  1.55E-13,  avg # of iterations =  4.0

     total cpu time spent up to now is       94.6 secs

     End of self-consistent calculation

          k = 0.0000 0.0000 0.0000 ( 14859 PWs)   bands (ev):

   -44.1999 -26.3595 -25.2953 -25.2086 -25.2086 -22.7494 -22.6546 -22.6546
   -16.6932 -16.6932 -16.5687 -16.3062 -16.3062 -12.5200 -12.2364 -12.1990
   -12.1990 -11.5263 -11.5263 -10.0252  -9.7197  -9.7197  -9.1053  -8.8570
    -8.8570  -8.7724  -8.7148  -8.7148  -8.6224  -8.4763  -8.4763  -1.8102
     0.7948   0.8122   0.8122   1.2030   1.2030   1.6560   1.6560   1.8814
     2.4004   2.4004   2.4861   2.7265   2.8228   2.8228   3.3060   3.3060
     3.5464

          k =-0.0205-0.0205 0.2069 ( 14845 PWs)   bands (ev):

   -44.1999 -26.3595 -25.2947 -25.2092 -25.2086 -22.7493 -22.6547 -22.6546
   -16.6933 -16.6929 -16.5687 -16.3066 -16.3062 -12.5225 -12.2463 -12.1966
   -12.1916 -11.5344 -11.5089 -10.0251  -9.7219  -9.7186  -9.1832  -8.9070
    -8.8498  -8.7529  -8.7024  -8.6535  -8.5853  -8.4847  -8.4746  -1.7851
     0.7441   0.7945   0.8415   1.1736   1.2075   1.6340   1.6485   1.8856
     2.3617   2.4207   2.5128   2.6435   2.8265   2.9077   3.2190   3.3024
     3.5200

          k =-0.0411-0.0411 0.4139 ( 14808 PWs)   bands (ev):

   -44.1999 -26.3595 -25.2937 -25.2103 -25.2086 -22.7493 -22.6548 -22.6546
   -16.6935 -16.6925 -16.5687 -16.3071 -16.3062 -12.5276 -12.2577 -12.1946
   -12.1793 -11.5479 -11.4819 -10.0251  -9.7254  -9.7167  -9.2751  -8.9631
    -8.8438  -8.7056  -8.6969  -8.6248  -8.5381  -8.4720  -8.4690  -1.7430
     0.6690   0.7616   0.8915   1.1224   1.2201   1.5883   1.6417   1.8831
     2.3313   2.4604   2.5250   2.5696   2.8323   2.9722   3.1219   3.2943
     3.4820

          k =-0.0411 0.1864 0.1864 ( 14829 PWs)   bands (ev):

   -44.1999 -26.3595 -25.2945 -25.2092 -25.2089 -22.7493 -22.6547 -22.6546
   -16.6932 -16.6928 -16.5687 -16.3067 -16.3064 -12.5263 -12.2566 -12.1937
   -12.1899 -11.5265 -11.5061 -10.0256  -9.7202  -9.7197  -9.1788  -8.9073
    -8.8523  -8.7273  -8.7127  -8.6433  -8.5892  -8.5026  -8.4788  -1.7699
     0.7056   0.8227   0.8391   1.1817   1.1828   1.6230   1.6614   1.8667
     2.3773   2.3925   2.5239   2.5842   2.8734   2.8996   3.2450   3.2649
     3.5045

          k =-0.0616 0.1659 0.3933 ( 14823 PWs)   bands (ev):

   -44.1999 -26.3595 -25.2936 -25.2100 -25.2089 -22.7493 -22.6548 -22.6546
   -16.6933 -16.6924 -16.5687 -16.3072 -16.3064 -12.5314 -12.2698 -12.1911
   -12.1799 -11.5349 -11.4821 -10.0259  -9.7233  -9.7178  -9.2517  -8.9500
    -8.8750  -8.6923  -8.6640  -8.6211  -8.5600  -8.5015  -8.4728  -1.7324
     0.6355   0.7987   0.8858   1.1314   1.1974   1.5894   1.6522   1.8616
     2.3391   2.4283   2.5009   2.5460   2.8737   2.9744   3.1615   3.2605
     3.4682

          k = 0.0205 0.2480-0.4344 ( 14827 PWs)   bands (ev):

   -44.1999 -26.3595 -25.2932 -25.2105 -25.2088 -22.7493 -22.6548 -22.6546
   -16.6933 -16.6924 -16.5687 -16.3073 -16.3064 -12.5303 -12.2686 -12.1903
   -12.1778 -11.5367 -11.4801 -10.0256  -9.7250  -9.7175  -9.2912  -8.9766
    -8.8853  -8.7083  -8.6346  -8.6056  -8.5363  -8.4814  -8.4677  -1.7247
     0.6332   0.7839   0.8865   1.1121   1.2091   1.5795   1.6363   1.8714
     2.3322   2.4261   2.5179   2.5492   2.8722   3.0116   3.1074   3.2621
     3.4589

          k =-0.0000 0.2275-0.2275 ( 14803 PWs)   bands (ev):

   -44.1999 -26.3595 -25.2939 -25.2099 -25.2087 -22.7493 -22.6548 -22.6546
   -16.6932 -16.6928 -16.5687 -16.3067 -16.3064 -12.5244 -12.2554 -12.1922
   -12.1863 -11.5303 -11.5022 -10.0250  -9.7236  -9.7185  -9.2571  -8.9485
    -8.8759  -8.7440  -8.6542  -8.6101  -8.5528  -8.4798  -8.4677  -1.7580
     0.6991   0.7917   0.8484   1.1458   1.2058   1.6160   1.6272   1.8918
     2.3460   2.4183   2.5370   2.5812   2.8581   2.9766   3.1374   3.2790
     3.4895

          k =-0.0822 0.3728 0.3728 ( 14792 PWs)   bands (ev):

   -44.1999 -26.3595 -25.2931 -25.2100 -25.2093 -22.7493 -22.6548 -22.6547
   -16.6932 -16.6922 -16.5686 -16.3076 -16.3067 -12.5371 -12.2862 -12.1854
   -12.1775 -11.5260 -11.4718 -10.0268  -9.7216  -9.7194  -9.2637  -8.9669
    -8.8501  -8.7261  -8.6379  -8.5851  -8.5813  -8.5056  -8.4697  -1.7068
     0.5743   0.8434   0.8819   1.1506   1.1516   1.5791   1.6559   1.8434
     2.3326   2.4134   2.4176   2.5662   2.8873   3.0432   3.1638   3.2035
     3.4428

          k = 0.0000 0.4550-0.4550 ( 14808 PWs)   bands (ev):

   -44.1999 -26.3595 -25.2929 -25.2104 -25.2092 -22.7493 -22.6548 -22.6547
   -16.6932 -16.6922 -16.5687 -16.3076 -16.3067 -12.5365 -12.2853 -12.1854
   -12.1759 -11.5275 -11.4702 -10.0266  -9.7232  -9.7186  -9.2845  -8.9798
    -8.8868  -8.7023  -8.6081  -8.6001  -8.5527  -8.5037  -8.4677  -1.7020
     0.5736   0.8290   0.8871   1.1157   1.1824   1.5717   1.6470   1.8465
     2.3271   2.3903   2.4570   2.5644   2.8866   3.0864   3.0986   3.2185
     3.4364

          k = 0.1659 0.1659 0.1659 ( 14842 PWs)   bands (ev):

   -44.1999 -26.3595 -25.2947 -25.2089 -25.2089 -22.7494 -22.6547 -22.6547
   -16.6929 -16.6929 -16.5687 -16.3067 -16.3067 -12.5331 -12.2666 -12.1909
   -12.1909 -11.5115 -11.5115 -10.0263  -9.7187  -9.7187  -9.0939  -8.8580
    -8.8580  -8.7227  -8.7227  -8.6949  -8.6207  -8.5112  -8.5112  -1.7604
     0.6640   0.8534   0.8534   1.1794   1.1794   1.6572   1.6572   1.8169
     2.3941   2.3941   2.5012   2.5414   2.8925   2.8925   3.2758   3.2758
     3.4996

          k = 0.1453 0.1453 0.3728 ( 14817 PWs)   bands (ev):

   -44.1999 -26.3595 -25.2939 -25.2096 -25.2089 -22.7494 -22.6547 -22.6547
   -16.6931 -16.6925 -16.5687 -16.3073 -16.3067 -12.5394 -12.2797 -12.1896
   -12.1803 -11.5239 -11.4829 -10.0266  -9.7212  -9.7168  -9.1732  -8.9086
    -8.8483  -8.7077  -8.6902  -8.6436  -8.5831  -8.5240  -8.5119  -1.7241
     0.5881   0.8311   0.9053   1.1435   1.1874   1.6174   1.6512   1.8148
     2.3575   2.4212   2.4659   2.5195   2.8996   2.9684   3.1973   3.2666
     3.4653

          k = 0.2275 0.2275-0.4550 ( 14850 PWs)   bands (ev):

   -44.1999 -26.3595 -25.2932 -25.2104 -25.2089 -22.7493 -22.6548 -22.6547
   -16.6931 -16.6925 -16.5687 -16.3073 -16.3067 -12.5365 -12.2782 -12.1881
   -12.1766 -11.5261 -11.4795 -10.0261  -9.7243  -9.7167  -9.2695  -8.9643
    -8.8460  -8.7034  -8.7005  -8.5873  -8.5465  -8.4954  -8.4745  -1.7112
     0.5847   0.8051   0.9034   1.1197   1.1976   1.5950   1.6230   1.8460
     2.3520   2.3868   2.5020   2.5376   2.9112   3.0118   3.1170   3.2501
     3.4478

          k = 0.2069 0.2069-0.2480 ( 14816 PWs)   bands (ev):

   -44.1999 -26.3595 -25.2936 -25.2101 -25.2089 -22.7493 -22.6548 -22.6546
   -16.6929 -16.6929 -16.5687 -16.3067 -16.3067 -12.5278 -12.2655 -12.1881
   -12.1850 -11.5149 -11.5059 -10.0255  -9.7237  -9.7184  -9.2722  -8.9641
    -8.8490  -8.7273  -8.7050  -8.5708  -8.5526  -8.4881  -8.4595  -1.7402
     0.6585   0.8101   0.8518   1.1427   1.1907   1.6051   1.6276   1.8796
     2.3636   2.3827   2.5319   2.5499   2.9114   2.9836   3.1284   3.2498
     3.4702

          k = 0.1248 0.3523 0.3523 ( 14796 PWs)   bands (ev):

   -44.1999 -26.3595 -25.2936 -25.2095 -25.2093 -22.7494 -22.6547 -22.6547
   -16.6929 -16.6923 -16.5686 -16.3076 -16.3070 -12.5474 -12.2942 -12.1841
   -12.1780 -11.5122 -11.4763 -10.0273  -9.7185  -9.7185  -9.1679  -8.9094
    -8.8524  -8.7331  -8.6648  -8.6029  -8.5940  -8.5449  -8.5207  -1.6965
     0.5179   0.8729   0.9105   1.1497   1.1628   1.6006   1.6555   1.7883
     2.3486   2.3800   2.4235   2.5359   2.9351   3.0251   3.1901   3.2198
     3.4401

          k = 0.2069 0.4344-0.4755 ( 14815 PWs)   bands (ev):

   -44.1999 -26.3595 -25.2930 -25.2102 -25.2092 -22.7493 -22.6548 -22.6547
   -16.6929 -16.6923 -16.5686 -16.3076 -16.3070 -12.5444 -12.2938 -12.1826
   -12.1758 -11.5116 -11.4751 -10.0271  -9.7219  -9.7176  -9.2453  -8.9523
    -8.8758  -8.7016  -8.6587  -8.5848  -8.5520  -8.5329  -8.4839  -1.6881
     0.5198   0.8558   0.9040   1.1268   1.1743   1.5832   1.6343   1.8164
     2.3164   2.3800   2.4470   2.5510   2.9540   3.0701   3.1162   3.1999
     3.4259

          k = 0.1864 0.4139-0.2686 ( 14797 PWs)   bands (ev):

   -44.1999 -26.3595 -25.2930 -25.2104 -25.2091 -22.7493 -22.6548 -22.6547
   -16.6931 -16.6925 -16.5686 -16.3073 -16.3067 -12.5341 -12.2798 -12.1853
   -12.1788 -11.5182 -11.4853 -10.0262  -9.7237  -9.7184  -9.2872  -8.9783
    -8.8866  -8.6959  -8.6628  -8.5687  -8.5461  -8.4994  -8.4613  -1.7107
     0.5953   0.8220   0.8762   1.1179   1.1885   1.5783   1.6360   1.8560
     2.3282   2.4013   2.4714   2.5586   2.9502   3.0104   3.1221   3.2133
     3.4411

          k = 0.2891-0.3933-0.3933 ( 14791 PWs)   bands (ev):

   -44.1999 -26.3595 -25.2929 -25.2102 -25.2093 -22.7493 -22.6548 -22.6547
   -16.6929 -16.6923 -16.5686 -16.3076 -16.3070 -12.5431 -12.2947 -12.1805
   -12.1775 -11.5071 -11.4784 -10.0271  -9.7219  -9.7183  -9.2629  -8.9668
    -8.8493  -8.7245  -8.6653  -8.5794  -8.5588  -8.5090  -8.4706  -1.6878
     0.5239   0.8732   0.8810   1.1399   1.1557   1.5799   1.6348   1.8249
     2.3028   2.4103   2.4110   2.5633   2.9761   3.0620   3.1460   3.1517
     3.4231

          k = 0.3317 0.3317 0.3317 ( 14815 PWs)   bands (ev):

   -44.1999 -26.3594 -25.2937 -25.2093 -25.2093 -22.7495 -22.6547 -22.6547
   -16.6925 -16.6925 -16.5686 -16.3076 -16.3076 -12.5596 -12.3067 -12.1783
   -12.1783 -11.4858 -11.4858 -10.0280  -9.7168  -9.7168  -9.0825  -8.8589
    -8.8589  -8.7417  -8.7417  -8.6180  -8.5639  -8.5634  -8.5634  -1.6701
     0.4371   0.9244   0.9244   1.1545   1.1545   1.6323   1.6323   1.7230
     2.2917   2.4040   2.4040   2.5286   3.0277   3.0277   3.1911   3.1911
     3.4217

          k = 0.4139 0.4139-0.4961 ( 14803 PWs)   bands (ev):

   -44.1999 -26.3594 -25.2933 -25.2098 -25.2093 -22.7494 -22.6548 -22.6547
   -16.6925 -16.6925 -16.5686 -16.3076 -16.3075 -12.5572 -12.3066 -12.1780
   -12.1761 -11.4871 -11.4828 -10.0278  -9.7190  -9.7167  -9.1661  -8.9099
    -8.8506  -8.7284  -8.7028  -8.5890  -8.5688  -8.5536  -8.5210  -1.6646
     0.4383   0.9060   0.9242   1.1438   1.1596   1.6051   1.6178   1.7608
     2.2702   2.4019   2.4209   2.5399   3.0486   3.0611   3.1328   3.1663
     3.4115

     highest occupied level (ev):     3.5464

!    total energy              =   -1451.77059933 Ry
     total all-electron energy =     -1451.770599 Ry
     estimated scf accuracy    <          2.7E-11 Ry

     The total energy is the sum of the following terms:
     one-electron contribution =    -423.61221867 Ry
     hartree contribution      =     273.47264843 Ry
     xc contribution           =    -119.66203603 Ry
     ewald contribution        =    -359.13375562 Ry
     one-center paw contrib.   =    -822.83523745 Ry

     convergence has been achieved in  16 iterations

     Forces acting on atoms (cartesian axes, Ry/au):

     atom    1 type  1   force =    -0.00001047   -0.00001047   -0.00001047
     atom    2 type  1   force =     0.00000361    0.00000361   -0.00001122
     atom    3 type  1   force =     0.00000361   -0.00001122    0.00000361
     atom    4 type  1   force =    -0.00001122    0.00000361    0.00000361
     atom    5 type  2   force =    -0.00000619   -0.00000619   -0.00000619
     atom    6 type  3   force =    -0.00000851   -0.00000851   -0.00000851
     atom    7 type  4   force =     0.00000072    0.00001264    0.00001264
     atom    8 type  4   force =    -0.00000452    0.00000385    0.00000385
     atom    9 type  4   force =     0.00001264    0.00000072    0.00001264
     atom   10 type  4   force =     0.00000385   -0.00000452    0.00000385
     atom   11 type  4   force =     0.00001264    0.00001264    0.00000072
     atom   12 type  4   force =     0.00000385    0.00000385   -0.00000452

     Total force =     0.000047     Total SCF correction =     0.000022
     SCF correction compared to forces is large: reduce conv_thr to get better values


     Computing stress (Cartesian axis) and pressure

          total   stress  (Ry/bohr**3)                   (kbar)     P=       -0.04
  -0.00000029   0.00000016   0.00000016           -0.04        0.02        0.02
   0.00000016  -0.00000029   0.00000016            0.02       -0.04        0.02
   0.00000016   0.00000016  -0.00000029            0.02        0.02       -0.04


     BFGS Geometry Optimization
     Energy error            =      0.0E+00 Ry
     Gradient error          =      1.3E-05 Ry/Bohr
     Cell gradient error     =      4.3E-02 kbar

     number of scf cycles    =   1
     number of bfgs steps    =   0

     enthalpy           new  =   -1451.7705993317 Ry

     new trust radius        =       0.0000798804 bohr
     new conv_thr            =            1.0E-10 Ry

     new unit-cell volume =   1887.97307 a.u.^3 (   279.76874 Ang^3 )
     density =      2.74405 g/cm^3

CELL_PARAMETERS (angstrom)
   6.615638687   0.729121990   0.729121990
   0.729121990   6.615638687   0.729121990
   0.729121990   0.729121990   6.615638687

ATOMIC_POSITIONS (angstrom)
K            -0.0749129785       -0.0749129785       -0.0749129785
K             4.5351449967        4.5351449967        0.9692751461
K             4.5351449967        0.9692751461        4.5351449967
K             0.9692751461        4.5351449967        4.5351449967
Zr            2.5361164014        2.5361164014        2.5361164014
Sn            4.3779807213        4.3779807213        4.3779807213
O             4.4193023882        2.3826890099        2.3826890099
O             1.7991565792       -1.8204691364       -1.8204691364
O             2.3826890099        4.4193023882        2.3826890099
O            -1.8204691364        1.7991565792       -1.8204691364
O             2.3826890099        2.3826890099        4.4193023882
O            -1.8204691364       -1.8204691364        1.7991565792



     Writing config-only to output data dir ./K4ZrSnO6.save/
     NEW-OLD atomic charge density approx. for the potential
     extrapolated charge   97.99787, renormalised to   98.00000

     total cpu time spent up to now is      139.7 secs

     per-process dynamical memory:   112.2 Mb

     Self-consistent Calculation

     iteration #  1     ecut=    60.00 Ry     beta= 0.70
     Davidson diagonalization with overlap
     ethr =  1.00E-06,  avg # of iterations =  2.0

     Threshold (ethr) on eigenvalues was too large:
     Diagonalizing with lowered threshold

     Davidson diagonalization with overlap
     ethr =  2.70E-10,  avg # of iterations =  2.1

     total cpu time spent up to now is      146.6 secs

     total energy              =   -1451.77059897 Ry
     estimated scf accuracy    <       0.00000028 Ry

     iteration #  2     ecut=    60.00 Ry     beta= 0.70
     Davidson diagonalization with overlap
     ethr =  2.91E-10,  avg # of iterations =  4.0

     total cpu time spent up to now is      152.8 secs

     total energy              =   -1451.77059927 Ry
     estimated scf accuracy    <       0.00000119 Ry

     iteration #  3     ecut=    60.00 Ry     beta= 0.70
     Davidson diagonalization with overlap
     ethr =  2.91E-10,  avg # of iterations =  3.5

     total cpu time spent up to now is      157.5 secs

     total energy              =   -1451.77059937 Ry
     estimated scf accuracy    <       0.00000013 Ry

     iteration #  4     ecut=    60.00 Ry     beta= 0.70
     Davidson diagonalization with overlap
     ethr =  1.32E-10,  avg # of iterations =  3.0

     total cpu time spent up to now is      161.4 secs

     total energy              =   -1451.77059936 Ry
     estimated scf accuracy    <       0.00000007 Ry

     iteration #  5     ecut=    60.00 Ry     beta= 0.70
     Davidson diagonalization with overlap
     ethr =  7.60E-11,  avg # of iterations =  1.9

     total cpu time spent up to now is      164.9 secs

     total energy              =   -1451.77059936 Ry
     estimated scf accuracy    <       0.00000005 Ry

     iteration #  6     ecut=    60.00 Ry     beta= 0.70
     Davidson diagonalization with overlap
     ethr =  4.82E-11,  avg # of iterations =  1.0

     total cpu time spent up to now is      168.3 secs

     total energy              =   -1451.77059935 Ry
     estimated scf accuracy    <       0.00000003 Ry

     iteration #  7     ecut=    60.00 Ry     beta= 0.70
     Davidson diagonalization with overlap
     ethr =  2.98E-11,  avg # of iterations =  2.4

     total cpu time spent up to now is      172.0 secs

     total energy              =   -1451.77059935 Ry
     estimated scf accuracy    <       0.00000001 Ry

     iteration #  8     ecut=    60.00 Ry     beta= 0.70
     Davidson diagonalization with overlap
     ethr =  1.09E-11,  avg # of iterations =  2.3

     total cpu time spent up to now is      175.7 secs

     total energy              =   -1451.77059935 Ry
     estimated scf accuracy    <          4.4E-09 Ry

     iteration #  9     ecut=    60.00 Ry     beta= 0.70
     Davidson diagonalization with overlap
     ethr =  4.44E-12,  avg # of iterations =  2.8

     total cpu time spent up to now is      179.6 secs

     total energy              =   -1451.77059935 Ry
     estimated scf accuracy    <          1.1E-09 Ry

     iteration # 10     ecut=    60.00 Ry     beta= 0.70
     Davidson diagonalization with overlap
     ethr =  1.16E-12,  avg # of iterations =  2.4

     total cpu time spent up to now is      183.3 secs

     total energy              =   -1451.77059935 Ry
     estimated scf accuracy    <          7.1E-10 Ry

     iteration # 11     ecut=    60.00 Ry     beta= 0.70
     Davidson diagonalization with overlap
     ethr =  7.25E-13,  avg # of iterations =  3.0

     total cpu time spent up to now is      187.8 secs

     End of self-consistent calculation

          k = 0.0000 0.0000 0.0000 ( 14859 PWs)   bands (ev):

   -44.1997 -26.3592 -25.2952 -25.2084 -25.2084 -22.7492 -22.6544 -22.6544
   -16.6930 -16.6930 -16.5685 -16.3060 -16.3060 -12.5199 -12.2363 -12.1989
   -12.1989 -11.5262 -11.5262 -10.0249  -9.7195  -9.7195  -9.1051  -8.8568
    -8.8568  -8.7723  -8.7146  -8.7146  -8.6222  -8.4761  -8.4761  -1.8101
     0.7949   0.8123   0.8123   1.2031   1.2031   1.6562   1.6562   1.8816
     2.4005   2.4005   2.4862   2.7266   2.8229   2.8229   3.3061   3.3061
     3.5465

          k =-0.0205-0.0205 0.2069 ( 14845 PWs)   bands (ev):

   -44.1997 -26.3592 -25.2945 -25.2091 -25.2084 -22.7491 -22.6545 -22.6544
   -16.6931 -16.6928 -16.5685 -16.3064 -16.3060 -12.5224 -12.2461 -12.1965
   -12.1915 -11.5342 -11.5087 -10.0248  -9.7216  -9.7183  -9.1830  -8.9068
    -8.8497  -8.7527  -8.7022  -8.6533  -8.5851  -8.4845  -8.4744  -1.7850
     0.7442   0.7946   0.8416   1.1737   1.2076   1.6341   1.6486   1.8857
     2.3619   2.4208   2.5130   2.6436   2.8267   2.9079   3.2191   3.3026
     3.5202

          k =-0.0411-0.0411 0.4139 ( 14808 PWs)   bands (ev):

   -44.1997 -26.3592 -25.2935 -25.2101 -25.2084 -22.7491 -22.6546 -22.6544
   -16.6933 -16.6923 -16.5685 -16.3069 -16.3060 -12.5275 -12.2576 -12.1945
   -12.1792 -11.5477 -11.4818 -10.0248  -9.7251  -9.7164  -9.2749  -8.9629
    -8.8437  -8.7055  -8.6968  -8.6246  -8.5379  -8.4718  -8.4688  -1.7429
     0.6691   0.7617   0.8916   1.1226   1.2202   1.5884   1.6418   1.8833
     2.3315   2.4606   2.5251   2.5698   2.8324   2.9724   3.1220   3.2944
     3.4822

          k =-0.0411 0.1864 0.1864 ( 14829 PWs)   bands (ev):

   -44.1997 -26.3592 -25.2943 -25.2090 -25.2087 -22.7491 -22.6545 -22.6545
   -16.6930 -16.6927 -16.5685 -16.3065 -16.3062 -12.5262 -12.2565 -12.1936
   -12.1898 -11.5264 -11.5059 -10.0253  -9.7200  -9.7194  -9.1786  -8.9072
    -8.8522  -8.7271  -8.7125  -8.6431  -8.5890  -8.5024  -8.4786  -1.7698
     0.7057   0.8228   0.8392   1.1819   1.1829   1.6232   1.6615   1.8669
     2.3774   2.3926   2.5240   2.5844   2.8735   2.8998   3.2452   3.2650
     3.5047

          k =-0.0616 0.1659 0.3933 ( 14823 PWs)   bands (ev):

   -44.1997 -26.3592 -25.2934 -25.2099 -25.2087 -22.7491 -22.6546 -22.6545
   -16.6931 -16.6923 -16.5685 -16.3070 -16.3062 -12.5313 -12.2697 -12.1909
   -12.1798 -11.5347 -11.4819 -10.0256  -9.7230  -9.7176  -9.2516  -8.9498
    -8.8748  -8.6921  -8.6638  -8.6209  -8.5598  -8.5013  -8.4726  -1.7322
     0.6355   0.7988   0.8859   1.1315   1.1975   1.5896   1.6523   1.8617
     2.3392   2.4284   2.5010   2.5462   2.8739   2.9746   3.1616   3.2607
     3.4684

          k = 0.0205 0.2480-0.4344 ( 14827 PWs)   bands (ev):

   -44.1997 -26.3592 -25.2931 -25.2103 -25.2087 -22.7491 -22.6546 -22.6544
   -16.6931 -16.6923 -16.5685 -16.3071 -16.3062 -12.5302 -12.2684 -12.1902
   -12.1776 -11.5366 -11.4800 -10.0253  -9.7247  -9.7172  -9.2911  -8.9764
    -8.8851  -8.7082  -8.6344  -8.6054  -8.5361  -8.4812  -8.4675  -1.7246
     0.6333   0.7840   0.8866   1.1122   1.2093   1.5797   1.6364   1.8716
     2.3323   2.4262   2.5180   2.5493   2.8723   3.0118   3.1075   3.2622
     3.4590

          k =-0.0000 0.2275-0.2275 ( 14803 PWs)   bands (ev):

   -44.1997 -26.3592 -25.2938 -25.2097 -25.2086 -22.7491 -22.6546 -22.6544
   -16.6930 -16.6927 -16.5685 -16.3065 -16.3062 -12.5242 -12.2553 -12.1921
   -12.1862 -11.5301 -11.5020 -10.0248  -9.7233  -9.7182  -9.2569  -8.9483
    -8.8757  -8.7438  -8.6540  -8.6099  -8.5526  -8.4796  -8.4675  -1.7578
     0.6992   0.7918   0.8485   1.1459   1.2060   1.6161   1.6274   1.8920
     2.3462   2.4185   2.5371   2.5813   2.8583   2.9767   3.1376   3.2792
     3.4896

          k =-0.0822 0.3728 0.3728 ( 14792 PWs)   bands (ev):

   -44.1997 -26.3592 -25.2929 -25.2099 -25.2092 -22.7491 -22.6546 -22.6545
   -16.6930 -16.6921 -16.5685 -16.3074 -16.3065 -12.5370 -12.2860 -12.1853
   -12.1774 -11.5258 -11.4716 -10.0265  -9.7213  -9.7191  -9.2636  -8.9667
    -8.8499  -8.7259  -8.6378  -8.5850  -8.5811  -8.5054  -8.4695  -1.7066
     0.5743   0.8435   0.8820   1.1507   1.1517   1.5792   1.6561   1.8436
     2.3327   2.4135   2.4178   2.5663   2.8875   3.0434   3.1639   3.2036
     3.4429

          k = 0.0000 0.4550-0.4550 ( 14808 PWs)   bands (ev):

   -44.1997 -26.3592 -25.2927 -25.2103 -25.2090 -22.7491 -22.6547 -22.6545
   -16.6930 -16.6921 -16.5685 -16.3074 -16.3065 -12.5364 -12.2851 -12.1852
   -12.1757 -11.5274 -11.4700 -10.0264  -9.7229  -9.7184  -9.2843  -8.9796
    -8.8866  -8.7021  -8.6079  -8.5999  -8.5525  -8.5035  -8.4675  -1.7018
     0.5737   0.8291   0.8872   1.1159   1.1825   1.5719   1.6471   1.8467
     2.3272   2.3904   2.4572   2.5646   2.8867   3.0866   3.0987   3.2187
     3.4366

          k = 0.1659 0.1659 0.1659 ( 14842 PWs)   bands (ev):

   -44.1997 -26.3592 -25.2945 -25.2087 -25.2087 -22.7492 -22.6545 -22.6545
   -16.6928 -16.6928 -16.5685 -16.3065 -16.3065 -12.5330 -12.2664 -12.1907
   -12.1907 -11.5113 -11.5113 -10.0260  -9.7184  -9.7184  -9.0938  -8.8578
    -8.8578  -8.7225  -8.7225  -8.6947  -8.6205  -8.5111  -8.5111  -1.7603
     0.6641   0.8535   0.8535   1.1795   1.1795   1.6573   1.6573   1.8171
     2.3943   2.3943   2.5013   2.5416   2.8927   2.8927   3.2760   3.2760
     3.4998

          k = 0.1453 0.1453 0.3728 ( 14817 PWs)   bands (ev):

   -44.1997 -26.3592 -25.2938 -25.2095 -25.2087 -22.7492 -22.6545 -22.6545
   -16.6929 -16.6923 -16.5685 -16.3071 -16.3065 -12.5392 -12.2795 -12.1894
   -12.1801 -11.5237 -11.4828 -10.0263  -9.7209  -9.7166  -9.1731  -8.9085
    -8.8481  -8.7075  -8.6900  -8.6434  -8.5829  -8.5238  -8.5117  -1.7239
     0.5882   0.8312   0.9054   1.1437   1.1875   1.6175   1.6513   1.8150
     2.3577   2.4213   2.4660   2.5197   2.8997   2.9686   3.1975   3.2668
     3.4655

          k = 0.2275 0.2275-0.4550 ( 14850 PWs)   bands (ev):

   -44.1997 -26.3592 -25.2931 -25.2102 -25.2087 -22.7491 -22.6546 -22.6545
   -16.6929 -16.6923 -16.5685 -16.3071 -16.3065 -12.5363 -12.2781 -12.1879
   -12.1764 -11.5260 -11.4794 -10.0259  -9.7240  -9.7164  -9.2694  -8.9641
    -8.8459  -8.7032  -8.7004  -8.5871  -8.5463  -8.4952  -8.4743  -1.7111
     0.5847   0.8052   0.9035   1.1198   1.1978   1.5952   1.6231   1.8461
     2.3521   2.3870   2.5022   2.5378   2.9114   3.0119   3.1171   3.2502
     3.4480

          k = 0.2069 0.2069-0.2480 ( 14816 PWs)   bands (ev):

   -44.1997 -26.3592 -25.2934 -25.2099 -25.2087 -22.7491 -22.6546 -22.6545
   -16.6928 -16.6928 -16.5685 -16.3065 -16.3065 -12.5277 -12.2653 -12.1879
   -12.1849 -11.5148 -11.5057 -10.0252  -9.7234  -9.7181  -9.2721  -8.9639
    -8.8488  -8.7271  -8.7049  -8.5706  -8.5525  -8.4880  -8.4593  -1.7401
     0.6586   0.8102   0.8519   1.1428   1.1908   1.6052   1.6277   1.8798
     2.3637   2.3828   2.5320   2.5500   2.9116   2.9837   3.1286   3.2500
     3.4703

          k = 0.1248 0.3523 0.3523 ( 14796 PWs)   bands (ev):

   -44.1997 -26.3592 -25.2934 -25.2093 -25.2091 -22.7492 -22.6545 -22.6545
   -16.6928 -16.6922 -16.5684 -16.3074 -16.3068 -12.5472 -12.2941 -12.1840
   -12.1779 -11.5120 -11.4761 -10.0270  -9.7182  -9.7182  -9.1678  -8.9092
    -8.8523  -8.7329  -8.6646  -8.6027  -8.5938  -8.5447  -8.5205  -1.6963
     0.5180   0.8730   0.9106   1.1499   1.1629   1.6008   1.6556   1.7884
     2.3488   2.3802   2.4236   2.5360   2.9353   3.0253   3.1903   3.2199
     3.4403

          k = 0.2069 0.4344-0.4755 ( 14815 PWs)   bands (ev):

   -44.1997 -26.3592 -25.2929 -25.2100 -25.2090 -22.7491 -22.6546 -22.6545
   -16.6928 -16.6922 -16.5685 -16.3074 -16.3068 -12.5443 -12.2937 -12.1825
   -12.1757 -11.5114 -11.4750 -10.0268  -9.7216  -9.7173  -9.2452  -8.9521
    -8.8756  -8.7014  -8.6585  -8.5846  -8.5518  -8.5327  -8.4838  -1.6879
     0.5199   0.8559   0.9041   1.1269   1.1744   1.5834   1.6345   1.8166
     2.3165   2.3801   2.4472   2.5512   2.9542   3.0702   3.1164   3.2001
     3.4261

          k = 0.1864 0.4139-0.2686 ( 14797 PWs)   bands (ev):

   -44.1997 -26.3592 -25.2928 -25.2103 -25.2089 -22.7491 -22.6547 -22.6545
   -16.6929 -16.6923 -16.5685 -16.3071 -16.3065 -12.5339 -12.2797 -12.1852
   -12.1786 -11.5180 -11.4852 -10.0259  -9.7234  -9.7181  -9.2871  -8.9781
    -8.8864  -8.6958  -8.6626  -8.5685  -8.5459  -8.4992  -8.4611  -1.7105
     0.5954   0.8221   0.8763   1.1180   1.1886   1.5784   1.6361   1.8562
     2.3283   2.4014   2.4716   2.5587   2.9504   3.0105   3.1223   3.2135
     3.4413

          k = 0.2891-0.3933-0.3933 ( 14791 PWs)   bands (ev):

   -44.1997 -26.3592 -25.2927 -25.2101 -25.2092 -22.7491 -22.6546 -22.6545
   -16.6928 -16.6922 -16.5684 -16.3074 -16.3068 -12.5429 -12.2945 -12.1804
   -12.1773 -11.5069 -11.4783 -10.0269  -9.7216  -9.7180  -9.2628  -8.9666
    -8.8492  -8.7243  -8.6651  -8.5792  -8.5586  -8.5088  -8.4704  -1.6876
     0.5240   0.8733   0.8811   1.1400   1.1558   1.5800   1.6349   1.8250
     2.3029   2.4104   2.4111   2.5634   2.9762   3.0622   3.1462   3.1518
     3.4233

          k = 0.3317 0.3317 0.3317 ( 14815 PWs)   bands (ev):

   -44.1997 -26.3592 -25.2935 -25.2091 -25.2091 -22.7493 -22.6545 -22.6545
   -16.6923 -16.6923 -16.5685 -16.3074 -16.3074 -12.5595 -12.3066 -12.1782
   -12.1782 -11.4856 -11.4856 -10.0277  -9.7166  -9.7166  -9.0824  -8.8587
    -8.8587  -8.7415  -8.7415  -8.6178  -8.5637  -8.5632  -8.5632  -1.6699
     0.4372   0.9245   0.9245   1.1546   1.1546   1.6325   1.6325   1.7232
     2.2918   2.4041   2.4041   2.5287   3.0278   3.0278   3.1913   3.1913
     3.4219

          k = 0.4139 0.4139-0.4961 ( 14803 PWs)   bands (ev):

   -44.1997 -26.3592 -25.2931 -25.2096 -25.2091 -22.7492 -22.6546 -22.6545
   -16.6923 -16.6923 -16.5684 -16.3074 -16.3074 -12.5571 -12.3064 -12.1778
   -12.1759 -11.4870 -11.4826 -10.0276  -9.7187  -9.7164  -9.1660  -8.9098
    -8.8504  -8.7282  -8.7026  -8.5888  -8.5687  -8.5535  -8.5208  -1.6644
     0.4384   0.9061   0.9243   1.1439   1.1597   1.6052   1.6180   1.7610
     2.2704   2.4021   2.4210   2.5401   3.0487   3.0612   3.1330   3.1664
     3.4117

     highest occupied level (ev):     3.5465

!    total energy              =   -1451.77059935 Ry
     total all-electron energy =     -1451.770599 Ry
     estimated scf accuracy    <          2.1E-11 Ry

     The total energy is the sum of the following terms:
     one-electron contribution =    -423.60775234 Ry
     hartree contribution      =     273.47105463 Ry
     xc contribution           =    -119.66212633 Ry
     ewald contribution        =    -359.13653213 Ry
     one-center paw contrib.   =    -822.83524319 Ry

     convergence has been achieved in  11 iterations

     Forces acting on atoms (cartesian axes, Ry/au):

     atom    1 type  1   force =    -0.00000982   -0.00000982   -0.00000982
     atom    2 type  1   force =     0.00000677    0.00000677   -0.00001394
     atom    3 type  1   force =     0.00000677   -0.00001394    0.00000677
     atom    4 type  1   force =    -0.00001394    0.00000677    0.00000677
     atom    5 type  2   force =    -0.00001879   -0.00001879   -0.00001879
     atom    6 type  3   force =    -0.00001549   -0.00001549   -0.00001549
     atom    7 type  4   force =     0.00001756    0.00001013    0.00001013
     atom    8 type  4   force =    -0.00001122    0.00000896    0.00000896
     atom    9 type  4   force =     0.00001013    0.00001756    0.00001013
     atom   10 type  4   force =     0.00000896   -0.00001122    0.00000896
     atom   11 type  4   force =     0.00001013    0.00001013    0.00001756
     atom   12 type  4   force =     0.00000896    0.00000896   -0.00001122

     Total force =     0.000073     Total SCF correction =     0.000007


     Computing stress (Cartesian axis) and pressure

          total   stress  (Ry/bohr**3)                   (kbar)     P=       -0.04
  -0.00000024   0.00000014   0.00000014           -0.04        0.02        0.02
   0.00000014  -0.00000024   0.00000014            0.02       -0.04        0.02
   0.00000014   0.00000014  -0.00000024            0.02        0.02       -0.04

     Energy error            =      2.0E-08 Ry
     Gradient error          =      1.9E-05 Ry/Bohr
     Cell gradient error     =      3.5E-02 kbar

     number of scf cycles    =   2
     number of bfgs steps    =   1

     enthalpy           old  =   -1451.7705993317 Ry
     enthalpy           new  =   -1451.7705993517 Ry

     CASE: enthalpy          _new < enthalpy          _old


     WARNING: bfgs curvature condition failed, Theta= 0.909
     small trust_radius: resetting bfgs history

     new trust radius        =       0.0000666666 bohr
     new conv_thr            =            1.0E-12 Ry

     new unit-cell volume =   1887.93908 a.u.^3 (   279.76371 Ang^3 )
     density =      2.74410 g/cm^3

CELL_PARAMETERS (angstrom)
   6.615603912   0.729142434   0.729142434
   0.729142434   6.615603912   0.729142434
   0.729142434   0.729142434   6.615603912

ATOMIC_POSITIONS (angstrom)
K            -0.0749182327       -0.0749182327       -0.0749182327
K             4.5351399607        4.5351399607        0.9692926024
K             4.5351399607        0.9692926024        4.5351399607
K             0.9692926024        4.5351399607        4.5351399607
Zr            2.5361083779        2.5361083779        2.5361083779
Sn            4.3779758395        4.3779758395        4.3779758395
O             4.4193012607        2.3827030541        2.3827030541
O             1.7991275439       -1.8204535435       -1.8204535435
O             2.3827030541        4.4193012607        2.3827030541
O            -1.8204535435        1.7991275439       -1.8204535435
O             2.3827030541        2.3827030541        4.4193012607
O            -1.8204535435       -1.8204535435        1.7991275439



     Writing config-only to output data dir ./K4ZrSnO6.save/
     NEW-OLD atomic charge density approx. for the potential
     extrapolated charge   97.99824, renormalised to   98.00000

     total cpu time spent up to now is      232.9 secs

     per-process dynamical memory:   112.4 Mb

     Self-consistent Calculation

     iteration #  1     ecut=    60.00 Ry     beta= 0.70
     Davidson diagonalization with overlap
     ethr =  1.00E-06,  avg # of iterations =  2.0

     Threshold (ethr) on eigenvalues was too large:
     Diagonalizing with lowered threshold

     Davidson diagonalization with overlap
     ethr =  1.68E-10,  avg # of iterations =  2.8

     total cpu time spent up to now is      239.8 secs

     total energy              =   -1451.77059911 Ry
     estimated scf accuracy    <       0.00000019 Ry

     iteration #  2     ecut=    60.00 Ry     beta= 0.70
     Davidson diagonalization with overlap
     ethr =  1.97E-10,  avg # of iterations =  4.0

     total cpu time spent up to now is      246.0 secs

     total energy              =   -1451.77059931 Ry
     estimated scf accuracy    <       0.00000084 Ry

     iteration #  3     ecut=    60.00 Ry     beta= 0.70
     Davidson diagonalization with overlap
     ethr =  1.97E-10,  avg # of iterations =  3.5

     total cpu time spent up to now is      250.7 secs

     total energy              =   -1451.77059938 Ry
     estimated scf accuracy    <       0.00000009 Ry

     iteration #  4     ecut=    60.00 Ry     beta= 0.70
     Davidson diagonalization with overlap
     ethr =  9.24E-11,  avg # of iterations =  3.0

     total cpu time spent up to now is      254.6 secs

     total energy              =   -1451.77059938 Ry
     estimated scf accuracy    <       0.00000005 Ry

     iteration #  5     ecut=    60.00 Ry     beta= 0.70
     Davidson diagonalization with overlap
     ethr =  5.34E-11,  avg # of iterations =  1.9

     total cpu time spent up to now is      258.1 secs

     total energy              =   -1451.77059937 Ry
     estimated scf accuracy    <       0.00000003 Ry

     iteration #  6     ecut=    60.00 Ry     beta= 0.70
     Davidson diagonalization with overlap
     ethr =  3.16E-11,  avg # of iterations =  1.0

     total cpu time spent up to now is      261.5 secs

     total energy              =   -1451.77059937 Ry
     estimated scf accuracy    <       0.00000002 Ry

     iteration #  7     ecut=    60.00 Ry     beta= 0.70
     Davidson diagonalization with overlap
     ethr =  1.83E-11,  avg # of iterations =  2.9

     total cpu time spent up to now is      265.4 secs

     total energy              =   -1451.77059937 Ry
     estimated scf accuracy    <          4.9E-09 Ry

     iteration #  8     ecut=    60.00 Ry     beta= 0.70
     Davidson diagonalization with overlap
     ethr =  4.97E-12,  avg # of iterations =  1.8

     total cpu time spent up to now is      268.9 secs

     total energy              =   -1451.77059937 Ry
     estimated scf accuracy    <          3.0E-09 Ry

     iteration #  9     ecut=    60.00 Ry     beta= 0.70
     Davidson diagonalization with overlap
     ethr =  3.05E-12,  avg # of iterations =  2.8

     total cpu time spent up to now is      272.9 secs

     total energy              =   -1451.77059937 Ry
     estimated scf accuracy    <          4.2E-10 Ry

     iteration # 10     ecut=    60.00 Ry     beta= 0.70
     Davidson diagonalization with overlap
     ethr =  4.25E-13,  avg # of iterations =  3.0

     total cpu time spent up to now is      277.1 secs

     total energy              =   -1451.77059937 Ry
     estimated scf accuracy    <          1.6E-10 Ry

     iteration # 11     ecut=    60.00 Ry     beta= 0.70
     Davidson diagonalization with overlap
     ethr =  1.67E-13,  avg # of iterations =  3.1

     total cpu time spent up to now is      281.8 secs

     total energy              =   -1451.77059937 Ry
     estimated scf accuracy    <          6.4E-12 Ry

     iteration # 12     ecut=    60.00 Ry     beta= 0.70
     Davidson diagonalization with overlap
     ethr =  1.00E-13,  avg # of iterations =  1.0

     total cpu time spent up to now is      285.1 secs

     total energy              =   -1451.77059937 Ry
     estimated scf accuracy    <          5.1E-12 Ry

     iteration # 13     ecut=    60.00 Ry     beta= 0.70
     Davidson diagonalization with overlap
     ethr =  1.00E-13,  avg # of iterations =  1.0

     total cpu time spent up to now is      288.5 secs

     total energy              =   -1451.77059937 Ry
     estimated scf accuracy    <          2.5E-12 Ry

     iteration # 14     ecut=    60.00 Ry     beta= 0.70
     Davidson diagonalization with overlap
     ethr =  1.00E-13,  avg # of iterations =  1.0

     total cpu time spent up to now is      291.9 secs

     total energy              =   -1451.77059937 Ry
     estimated scf accuracy    <          1.8E-12 Ry

     iteration # 15     ecut=    60.00 Ry     beta= 0.70
     Davidson diagonalization with overlap
     ethr =  1.00E-13,  avg # of iterations =  1.0

     total cpu time spent up to now is      295.2 secs

     total energy              =   -1451.77059937 Ry
     estimated scf accuracy    <          1.4E-12 Ry

     iteration # 16     ecut=    60.00 Ry     beta= 0.70
     Davidson diagonalization with overlap
     ethr =  1.00E-13,  avg # of iterations =  1.0

     total cpu time spent up to now is      298.5 secs

     total energy              =   -1451.77059937 Ry
     estimated scf accuracy    <          1.9E-12 Ry

     iteration # 17     ecut=    60.00 Ry     beta= 0.70
     Davidson diagonalization with overlap
     ethr =  1.00E-13,  avg # of iterations =  1.0

     total cpu time spent up to now is      301.9 secs

     total energy              =   -1451.77059937 Ry
     estimated scf accuracy    <          2.6E-12 Ry

     iteration # 18     ecut=    60.00 Ry     beta= 0.70
     Davidson diagonalization with overlap
     ethr =  1.00E-13,  avg # of iterations =  1.0

     total cpu time spent up to now is      305.2 secs

     total energy              =   -1451.77059937 Ry
     estimated scf accuracy    <          2.8E-12 Ry

     iteration # 19     ecut=    60.00 Ry     beta= 0.70
     Davidson diagonalization with overlap
     ethr =  1.00E-13,  avg # of iterations =  1.0

     total cpu time spent up to now is      308.5 secs

     End of self-consistent calculation

          k = 0.0000 0.0000 0.0000 ( 14859 PWs)   bands (ev):

   -44.1996 -26.3590 -25.2950 -25.2083 -25.2083 -22.7491 -22.6543 -22.6543
   -16.6929 -16.6929 -16.5683 -16.3059 -16.3059 -12.5198 -12.2362 -12.1988
   -12.1988 -11.5260 -11.5260 -10.0246  -9.7192  -9.7192  -9.1050  -8.8567
    -8.8567  -8.7721  -8.7144  -8.7144  -8.6220  -8.4760  -8.4760  -1.8100
     0.7950   0.8124   0.8124   1.2032   1.2032   1.6563   1.6563   1.8817
     2.4007   2.4007   2.4863   2.7268   2.8231   2.8231   3.3063   3.3063
     3.5466

          k =-0.0205-0.0205 0.2069 ( 14845 PWs)   bands (ev):

   -44.1996 -26.3590 -25.2944 -25.2089 -25.2083 -22.7490 -22.6544 -22.6543
   -16.6930 -16.6926 -16.5683 -16.3062 -16.3059 -12.5223 -12.2460 -12.1964
   -12.1914 -11.5341 -11.5086 -10.0246  -9.7213  -9.7180  -9.1829  -8.9067
    -8.8495  -8.7526  -8.7020  -8.6532  -8.5849  -8.4844  -8.4742  -1.7849
     0.7443   0.7947   0.8417   1.1739   1.2078   1.6342   1.6487   1.8859
     2.3620   2.4210   2.5131   2.6438   2.8268   2.9080   3.2192   3.3027
     3.5203

          k =-0.0411-0.0411 0.4139 ( 14808 PWs)   bands (ev):

   -44.1996 -26.3590 -25.2934 -25.2099 -25.2083 -22.7490 -22.6545 -22.6543
   -16.6932 -16.6922 -16.5683 -16.3068 -16.3058 -12.5274 -12.2574 -12.1944
   -12.1791 -11.5476 -11.4816 -10.0246  -9.7248  -9.7162  -9.2748  -8.9628
    -8.8435  -8.7053  -8.6966  -8.6244  -8.5378  -8.4716  -8.4687  -1.7428
     0.6692   0.7618   0.8917   1.1227   1.2203   1.5885   1.6419   1.8834
     2.3316   2.4607   2.5252   2.5699   2.8325   2.9725   3.1221   3.2946
     3.4823

          k =-0.0411 0.1864 0.1864 ( 14829 PWs)   bands (ev):

   -44.1996 -26.3590 -25.2942 -25.2088 -25.2086 -22.7491 -22.6544 -22.6544
   -16.6929 -16.6925 -16.5683 -16.3064 -16.3060 -12.5261 -12.2564 -12.1935
   -12.1897 -11.5262 -11.5058 -10.0251  -9.7197  -9.7191  -9.1785  -8.9070
    -8.8520  -8.7270  -8.7123  -8.6429  -8.5888  -8.5023  -8.4785  -1.7697
     0.7058   0.8229   0.8393   1.1820   1.1830   1.6233   1.6616   1.8670
     2.3776   2.3928   2.5242   2.5845   2.8736   2.8999   3.2453   3.2651
     3.5048

          k =-0.0616 0.1659 0.3933 ( 14823 PWs)   bands (ev):

   -44.1996 -26.3589 -25.2933 -25.2097 -25.2086 -22.7490 -22.6545 -22.6544
   -16.6930 -16.6921 -16.5683 -16.3069 -16.3061 -12.5312 -12.2695 -12.1909
   -12.1797 -11.5346 -11.4817 -10.0254  -9.7228  -9.7173  -9.2515  -8.9497
    -8.8747  -8.6919  -8.6636  -8.6207  -8.5596  -8.5011  -8.4724  -1.7321
     0.6356   0.7989   0.8861   1.1317   1.1976   1.5897   1.6524   1.8619
     2.3393   2.4285   2.5011   2.5463   2.8740   2.9747   3.1618   3.2608
     3.4685

          k = 0.0205 0.2480-0.4344 ( 14827 PWs)   bands (ev):

   -44.1996 -26.3589 -25.2929 -25.2101 -25.2085 -22.7490 -22.6546 -22.6543
   -16.6930 -16.6921 -16.5683 -16.3069 -16.3061 -12.5301 -12.2683 -12.1901
   -12.1776 -11.5364 -11.4798 -10.0250  -9.7245  -9.7170  -9.2909  -8.9763
    -8.8850  -8.7080  -8.6343  -8.6052  -8.5359  -8.4810  -8.4673  -1.7245
     0.6334   0.7841   0.8867   1.1123   1.2094   1.5798   1.6365   1.8717
     2.3324   2.4263   2.5182   2.5494   2.8724   3.0119   3.1076   3.2623
     3.4592

          k =-0.0000 0.2275-0.2275 ( 14803 PWs)   bands (ev):

   -44.1996 -26.3590 -25.2936 -25.2096 -25.2084 -22.7490 -22.6545 -22.6543
   -16.6929 -16.6925 -16.5683 -16.3064 -16.3060 -12.5241 -12.2551 -12.1920
   -12.1861 -11.5299 -11.5019 -10.0245  -9.7231  -9.7179  -9.2568  -8.9482
    -8.8756  -8.7437  -8.6538  -8.6098  -8.5525  -8.4795  -8.4674  -1.7577
     0.6993   0.7919   0.8486   1.1460   1.2061   1.6162   1.6275   1.8921
     2.3463   2.4186   2.5373   2.5814   2.8584   2.9768   3.1377   3.2793
     3.4897

          k =-0.0822 0.3728 0.3728 ( 14792 PWs)   bands (ev):

   -44.1996 -26.3589 -25.2928 -25.2097 -25.2090 -22.7490 -22.6545 -22.6544
   -16.6929 -16.6919 -16.5683 -16.3072 -16.3063 -12.5369 -12.2859 -12.1852
   -12.1773 -11.5257 -11.4715 -10.0263  -9.7210  -9.7189  -9.2635  -8.9666
    -8.8498  -8.7258  -8.6376  -8.5848  -8.5810  -8.5052  -8.4694  -1.7065
     0.5744   0.8436   0.8822   1.1508   1.1518   1.5794   1.6562   1.8437
     2.3328   2.4136   2.4179   2.5665   2.8876   3.0435   3.1641   3.2038
     3.4431

          k = 0.0000 0.4550-0.4550 ( 14808 PWs)   bands (ev):

   -44.1996 -26.3589 -25.2926 -25.2101 -25.2089 -22.7490 -22.6546 -22.6544
   -16.6929 -16.6919 -16.5683 -16.3072 -16.3063 -12.5363 -12.2850 -12.1851
   -12.1756 -11.5272 -11.4699 -10.0261  -9.7227  -9.7181  -9.2842  -8.9795
    -8.8865  -8.7020  -8.6078  -8.5997  -8.5524  -8.5033  -8.4673  -1.7017
     0.5738   0.8292   0.8873   1.1160   1.1826   1.5720   1.6472   1.8468
     2.3273   2.3905   2.4573   2.5647   2.8868   3.0867   3.0989   3.2188
     3.4367

          k = 0.1659 0.1659 0.1659 ( 14842 PWs)   bands (ev):

   -44.1996 -26.3590 -25.2944 -25.2086 -25.2086 -22.7491 -22.6544 -22.6544
   -16.6926 -16.6926 -16.5683 -16.3064 -16.3064 -12.5329 -12.2663 -12.1906
   -12.1906 -11.5112 -11.5112 -10.0258  -9.7181  -9.7181  -9.0937  -8.8577
    -8.8577  -8.7223  -8.7223  -8.6946  -8.6203  -8.5109  -8.5109  -1.7602
     0.6642   0.8536   0.8536   1.1796   1.1796   1.6575   1.6575   1.8172
     2.3944   2.3944   2.5014   2.5417   2.8928   2.8928   3.2761   3.2761
     3.4999

          k = 0.1453 0.1453 0.3728 ( 14817 PWs)   bands (ev):

   -44.1996 -26.3589 -25.2936 -25.2093 -25.2086 -22.7491 -22.6545 -22.6544
   -16.6928 -16.6922 -16.5683 -16.3069 -16.3064 -12.5391 -12.2794 -12.1893
   -12.1800 -11.5236 -11.4826 -10.0261  -9.7206  -9.7163  -9.1729  -8.9083
    -8.8480  -8.7073  -8.6898  -8.6433  -8.5827  -8.5236  -8.5115  -1.7238
     0.5883   0.8313   0.9055   1.1438   1.1876   1.6176   1.6515   1.8151
     2.3578   2.4214   2.4661   2.5198   2.8998   2.9687   3.1976   3.2669
     3.4656

          k = 0.2275 0.2275-0.4550 ( 14850 PWs)   bands (ev):

   -44.1996 -26.3589 -25.2929 -25.2100 -25.2086 -22.7490 -22.6545 -22.6544
   -16.6928 -16.6922 -16.5683 -16.3070 -16.3064 -12.5362 -12.2780 -12.1879
   -12.1763 -11.5258 -11.4792 -10.0256  -9.7238  -9.7161  -9.2693  -8.9640
    -8.8457  -8.7031  -8.7002  -8.5870  -8.5461  -8.4950  -8.4741  -1.7110
     0.5848   0.8053   0.9036   1.1199   1.1979   1.5953   1.6232   1.8463
     2.3523   2.3871   2.5023   2.5379   2.9115   3.0120   3.1172   3.2504
     3.4481

          k = 0.2069 0.2069-0.2480 ( 14816 PWs)   bands (ev):

   -44.1996 -26.3589 -25.2933 -25.2097 -25.2086 -22.7490 -22.6545 -22.6544
   -16.6926 -16.6926 -16.5683 -16.3064 -16.3064 -12.5276 -12.2652 -12.1878
   -12.1848 -11.5146 -11.5055 -10.0250  -9.7232  -9.7179  -9.2720  -8.9638
    -8.8487  -8.7270  -8.7047  -8.5704  -8.5523  -8.4878  -8.4591  -1.7400
     0.6587   0.8103   0.8520   1.1430   1.1909   1.6053   1.6278   1.8799
     2.3638   2.3830   2.5322   2.5502   2.9117   2.9839   3.1287   3.2501
     3.4705

          k = 0.1248 0.3523 0.3523 ( 14796 PWs)   bands (ev):

   -44.1996 -26.3589 -25.2933 -25.2091 -25.2090 -22.7491 -22.6545 -22.6544
   -16.6926 -16.6920 -16.5683 -16.3072 -16.3067 -12.5471 -12.2939 -12.1839
   -12.1778 -11.5119 -11.4760 -10.0268  -9.7180  -9.7179  -9.1676  -8.9091
    -8.8521  -8.7327  -8.6644  -8.6026  -8.5936  -8.5445  -8.5203  -1.6962
     0.5181   0.8731   0.9107   1.1500   1.1630   1.6009   1.6557   1.7885
     2.3489   2.3803   2.4237   2.5361   2.9354   3.0254   3.1904   3.2201
     3.4404

          k = 0.2069 0.4344-0.4755 ( 14815 PWs)   bands (ev):

   -44.1996 -26.3589 -25.2927 -25.2099 -25.2089 -22.7491 -22.6545 -22.6544
   -16.6926 -16.6920 -16.5683 -16.3072 -16.3067 -12.5442 -12.2936 -12.1824
   -12.1756 -11.5113 -11.4748 -10.0266  -9.7213  -9.7171  -9.2451  -8.9520
    -8.8755  -8.7013  -8.6583  -8.5845  -8.5517  -8.5326  -8.4836  -1.6878
     0.5200   0.8561   0.9042   1.1270   1.1745   1.5835   1.6346   1.8167
     2.3166   2.3802   2.4473   2.5513   2.9543   3.0703   3.1165   3.2002
     3.4262

          k = 0.1864 0.4139-0.2686 ( 14797 PWs)   bands (ev):

   -44.1996 -26.3589 -25.2927 -25.2101 -25.2087 -22.7490 -22.6546 -22.6544
   -16.6928 -16.6922 -16.5683 -16.3069 -16.3064 -12.5338 -12.2796 -12.1851
   -12.1786 -11.5179 -11.4850 -10.0257  -9.7232  -9.7178  -9.2870  -8.9780
    -8.8863  -8.6956  -8.6624  -8.5684  -8.5457  -8.4991  -8.4610  -1.7104
     0.5955   0.8222   0.8764   1.1181   1.1887   1.5785   1.6362   1.8563
     2.3285   2.4016   2.4717   2.5589   2.9505   3.0107   3.1224   3.2136
     3.4414

          k = 0.2891-0.3933-0.3933 ( 14791 PWs)   bands (ev):

   -44.1996 -26.3589 -25.2926 -25.2099 -25.2090 -22.7491 -22.6545 -22.6544
   -16.6926 -16.6920 -16.5683 -16.3072 -16.3067 -12.5428 -12.2944 -12.1803
   -12.1773 -11.5068 -11.4781 -10.0266  -9.7214  -9.7178  -9.2627  -8.9665
    -8.8490  -8.7241  -8.6650  -8.5791  -8.5585  -8.5086  -8.4703  -1.6875
     0.5241   0.8734   0.8813   1.1401   1.1560   1.5802   1.6351   1.8252
     2.3030   2.4106   2.4112   2.5636   2.9763   3.0623   3.1463   3.1520
     3.4234

          k = 0.3317 0.3317 0.3317 ( 14815 PWs)   bands (ev):

   -44.1996 -26.3589 -25.2934 -25.2090 -25.2090 -22.7492 -22.6544 -22.6544
   -16.6922 -16.6922 -16.5683 -16.3072 -16.3072 -12.5594 -12.3064 -12.1781
   -12.1781 -11.4855 -11.4855 -10.0274  -9.7163  -9.7163  -9.0823  -8.8586
    -8.8586  -8.7414  -8.7414  -8.6176  -8.5636  -8.5630  -8.5630  -1.6698
     0.4372   0.9246   0.9246   1.1547   1.1547   1.6326   1.6326   1.7233
     2.2920   2.4042   2.4042   2.5289   3.0280   3.0280   3.1914   3.1914
     3.4220

          k = 0.4139 0.4139-0.4961 ( 14803 PWs)   bands (ev):

   -44.1996 -26.3589 -25.2930 -25.2094 -25.2090 -22.7492 -22.6545 -22.6544
   -16.6922 -16.6922 -16.5683 -16.3072 -16.3072 -12.5570 -12.3063 -12.1778
   -12.1758 -11.4868 -11.4825 -10.0273  -9.7184  -9.7162  -9.1659  -8.9096
    -8.8503  -8.7281  -8.7024  -8.5886  -8.5685  -8.5533  -8.5207  -1.6643
     0.4385   0.9062   0.9245   1.1440   1.1598   1.6054   1.6181   1.7611
     2.2705   2.4022   2.4211   2.5402   3.0488   3.0614   3.1331   3.1666
     3.4118

     highest occupied level (ev):     3.5466

!    total energy              =   -1451.77059937 Ry
     total all-electron energy =     -1451.770599 Ry
     estimated scf accuracy    <          8.8E-13 Ry

     The total energy is the sum of the following terms:
     one-electron contribution =    -423.60091963 Ry
     hartree contribution      =     273.46818374 Ry
     xc contribution           =    -119.66216430 Ry
     ewald contribution        =    -359.14044492 Ry
     one-center paw contrib.   =    -822.83525425 Ry

     convergence has been achieved in  19 iterations

     Forces acting on atoms (cartesian axes, Ry/au):

     atom    1 type  1   force =    -0.00001017   -0.00001017   -0.00001017
     atom    2 type  1   force =     0.00000785    0.00000785   -0.00001472
     atom    3 type  1   force =     0.00000785   -0.00001472    0.00000785
     atom    4 type  1   force =    -0.00001472    0.00000785    0.00000785
     atom    5 type  2   force =    -0.00000969   -0.00000969   -0.00000969
     atom    6 type  3   force =    -0.00001798   -0.00001798   -0.00001798
     atom    7 type  4   force =     0.00001478    0.00000832    0.00000832
     atom    8 type  4   force =    -0.00001481    0.00001012    0.00001012
     atom    9 type  4   force =     0.00000832    0.00001478    0.00000832
     atom   10 type  4   force =     0.00001012   -0.00001481    0.00001012
     atom   11 type  4   force =     0.00000832    0.00000832    0.00001478
     atom   12 type  4   force =     0.00001012    0.00001012   -0.00001481

     Total force =     0.000070     Total SCF correction =     0.000002


     Computing stress (Cartesian axis) and pressure

          total   stress  (Ry/bohr**3)                   (kbar)     P=       -0.03
  -0.00000021   0.00000012   0.00000012           -0.03        0.02        0.02
   0.00000012  -0.00000021   0.00000012            0.02       -0.03        0.02
   0.00000012   0.00000012  -0.00000021            0.02        0.02       -0.03

     Energy error            =      1.8E-08 Ry
     Gradient error          =      1.8E-05 Ry/Bohr
     Cell gradient error     =      3.1E-02 kbar

     number of scf cycles    =   3
     number of bfgs steps    =   2

     enthalpy           old  =   -1451.7705993517 Ry
     enthalpy           new  =   -1451.7705993692 Ry

     CASE: enthalpy          _new < enthalpy          _old


     WARNING: bfgs curvature condition failed, Theta= 0.886
     Message from routine bfgs :: compute_trust_radius:
     history already reset at previous step: stopping
     small trust_radius: resetting bfgs history

     new trust radius        =       0.0000595843 bohr
     new conv_thr            =            1.0E-12 Ry

     new unit-cell volume =   1887.90922 a.u.^3 (   279.75928 Ang^3 )
     density =      2.74415 g/cm^3

CELL_PARAMETERS (angstrom)
   6.615573559   0.729161361   0.729161361
   0.729161361   6.615573559   0.729161361
   0.729161361   0.729161361   6.615573559

ATOMIC_POSITIONS (angstrom)
K            -0.0749236838       -0.0749236838       -0.0749236838
K             4.5351372741        4.5351372741        0.9693078217
K             4.5351372741        0.9693078217        4.5351372741
K             0.9693078217        4.5351372741        4.5351372741
Zr            2.5361056072        2.5361056072        2.5361056072
Sn            4.3779703939        4.3779703939        4.3779703939
O             4.4193005619        2.3827159848        2.3827159848
O             1.7990989336       -1.8204386585       -1.8204386585
O             2.3827159848        4.4193005619        2.3827159848
O            -1.8204386585        1.7990989336       -1.8204386585
O             2.3827159848        2.3827159848        4.4193005619
O            -1.8204386585       -1.8204386585        1.7990989336



     Writing config-only to output data dir ./K4ZrSnO6.save/
     NEW-OLD atomic charge density approx. for the potential
     extrapolated charge   97.99845, renormalised to   98.00000

     total cpu time spent up to now is      353.6 secs

     per-process dynamical memory:   112.4 Mb

     Self-consistent Calculation

     iteration #  1     ecut=    60.00 Ry     beta= 0.70
     Davidson diagonalization with overlap
     ethr =  1.00E-06,  avg # of iterations =  2.0

     Threshold (ethr) on eigenvalues was too large:
     Diagonalizing with lowered threshold

     Davidson diagonalization with overlap
     ethr =  1.23E-10,  avg # of iterations =  2.9

     total cpu time spent up to now is      360.6 secs

     total energy              =   -1451.77059919 Ry
     estimated scf accuracy    <       0.00000014 Ry

     iteration #  2     ecut=    60.00 Ry     beta= 0.70
     Davidson diagonalization with overlap
     ethr =  1.46E-10,  avg # of iterations =  4.0

     total cpu time spent up to now is      366.8 secs

     total energy              =   -1451.77059934 Ry
     estimated scf accuracy    <       0.00000061 Ry

     iteration #  3     ecut=    60.00 Ry     beta= 0.70
     Davidson diagonalization with overlap
     ethr =  1.46E-10,  avg # of iterations =  3.5

     total cpu time spent up to now is      371.5 secs

     total energy              =   -1451.77059939 Ry
     estimated scf accuracy    <       0.00000007 Ry

     iteration #  4     ecut=    60.00 Ry     beta= 0.70
     Davidson diagonalization with overlap
     ethr =  7.05E-11,  avg # of iterations =  3.0

     total cpu time spent up to now is      375.4 secs

     total energy              =   -1451.77059939 Ry
     estimated scf accuracy    <       0.00000004 Ry

     iteration #  5     ecut=    60.00 Ry     beta= 0.70
     Davidson diagonalization with overlap
     ethr =  4.14E-11,  avg # of iterations =  1.9

     total cpu time spent up to now is      378.9 secs

     total energy              =   -1451.77059939 Ry
     estimated scf accuracy    <       0.00000002 Ry

     iteration #  6     ecut=    60.00 Ry     beta= 0.70
     Davidson diagonalization with overlap
     ethr =  2.44E-11,  avg # of iterations =  1.0

     total cpu time spent up to now is      382.3 secs

     total energy              =   -1451.77059938 Ry
     estimated scf accuracy    <       0.00000001 Ry

     iteration #  7     ecut=    60.00 Ry     beta= 0.70
     Davidson diagonalization with overlap
     ethr =  1.45E-11,  avg # of iterations =  2.8

     total cpu time spent up to now is      386.1 secs

     total energy              =   -1451.77059938 Ry
     estimated scf accuracy    <          3.9E-09 Ry

     iteration #  8     ecut=    60.00 Ry     beta= 0.70
     Davidson diagonalization with overlap
     ethr =  3.94E-12,  avg # of iterations =  1.9

     total cpu time spent up to now is      389.7 secs

     total energy              =   -1451.77059938 Ry
     estimated scf accuracy    <          2.1E-09 Ry

     iteration #  9     ecut=    60.00 Ry     beta= 0.70
     Davidson diagonalization with overlap
     ethr =  2.13E-12,  avg # of iterations =  2.7

     total cpu time spent up to now is      393.7 secs

     total energy              =   -1451.77059938 Ry
     estimated scf accuracy    <          3.3E-10 Ry

     iteration # 10     ecut=    60.00 Ry     beta= 0.70
     Davidson diagonalization with overlap
     ethr =  3.35E-13,  avg # of iterations =  3.0

     total cpu time spent up to now is      397.8 secs

     total energy              =   -1451.77059938 Ry
     estimated scf accuracy    <          1.9E-10 Ry

     iteration # 11     ecut=    60.00 Ry     beta= 0.70
     Davidson diagonalization with overlap
     ethr =  1.96E-13,  avg # of iterations =  3.0

     total cpu time spent up to now is      402.2 secs

     total energy              =   -1451.77059938 Ry
     estimated scf accuracy    <          6.1E-12 Ry

     iteration # 12     ecut=    60.00 Ry     beta= 0.70
     Davidson diagonalization with overlap
     ethr =  1.00E-13,  avg # of iterations =  1.0

     total cpu time spent up to now is      405.5 secs

     total energy              =   -1451.77059938 Ry
     estimated scf accuracy    <          5.0E-12 Ry

     iteration # 13     ecut=    60.00 Ry     beta= 0.70
     Davidson diagonalization with overlap
     ethr =  1.00E-13,  avg # of iterations =  1.0

     total cpu time spent up to now is      408.9 secs

     End of self-consistent calculation

          k = 0.0000 0.0000 0.0000 ( 14859 PWs)   bands (ev):

   -44.1995 -26.3588 -25.2949 -25.2082 -25.2082 -22.7490 -22.6542 -22.6542
   -16.6928 -16.6928 -16.5682 -16.3057 -16.3057 -12.5197 -12.2361 -12.1987
   -12.1987 -11.5259 -11.5259 -10.0244  -9.7190  -9.7190  -9.1049  -8.8565
    -8.8565  -8.7720  -8.7143  -8.7143  -8.6219  -8.4758  -8.4758  -1.8099
     0.7950   0.8125   0.8125   1.2033   1.2033   1.6564   1.6564   1.8818
     2.4008   2.4008   2.4864   2.7269   2.8232   2.8232   3.3064   3.3064
     3.5468

          k =-0.0205-0.0205 0.2069 ( 14845 PWs)   bands (ev):

   -44.1995 -26.3587 -25.2943 -25.2088 -25.2082 -22.7490 -22.6543 -22.6542
   -16.6929 -16.6925 -16.5682 -16.3061 -16.3057 -12.5222 -12.2459 -12.1963
   -12.1913 -11.5340 -11.5084 -10.0244  -9.7211  -9.7178  -9.1828  -8.9065
    -8.8494  -8.7524  -8.7019  -8.6530  -8.5848  -8.4843  -8.4741  -1.7848
     0.7444   0.7948   0.8418   1.1739   1.2079   1.6343   1.6488   1.8860
     2.3621   2.4211   2.5132   2.6439   2.8269   2.9081   3.2194   3.3029
     3.5205

          k =-0.0411-0.0411 0.4139 ( 14808 PWs)   bands (ev):

   -44.1995 -26.3587 -25.2932 -25.2098 -25.2082 -22.7489 -22.6544 -22.6543
   -16.6930 -16.6920 -16.5682 -16.3067 -16.3057 -12.5273 -12.2573 -12.1943
   -12.1790 -11.5475 -11.4815 -10.0244  -9.7246  -9.7159  -9.2747  -8.9627
    -8.8434  -8.7052  -8.6965  -8.6243  -8.5376  -8.4715  -8.4685  -1.7427
     0.6693   0.7619   0.8918   1.1228   1.2204   1.5886   1.6420   1.8835
     2.3317   2.4608   2.5253   2.5700   2.8327   2.9726   3.1223   3.2947
     3.4825

          k =-0.0411 0.1864 0.1864 ( 14829 PWs)   bands (ev):

   -44.1995 -26.3587 -25.2941 -25.2087 -25.2084 -22.7490 -22.6543 -22.6543
   -16.6928 -16.6924 -16.5682 -16.3063 -16.3059 -12.5260 -12.2563 -12.1934
   -12.1896 -11.5261 -11.5057 -10.0249  -9.7195  -9.7189  -9.1784  -8.9069
    -8.8519  -8.7269  -8.7122  -8.6428  -8.5887  -8.5022  -8.4783  -1.7696
     0.7058   0.8230   0.8394   1.1821   1.1831   1.6234   1.6617   1.8671
     2.3777   2.3929   2.5243   2.5846   2.8738   2.9000   3.2454   3.2653
     3.5050

          k =-0.0616 0.1659 0.3933 ( 14823 PWs)   bands (ev):

   -44.1995 -26.3587 -25.2932 -25.2096 -25.2084 -22.7490 -22.6544 -22.6543
   -16.6929 -16.6920 -16.5682 -16.3068 -16.3060 -12.5311 -12.2694 -12.1908
   -12.1796 -11.5345 -11.4816 -10.0251  -9.7225  -9.7171  -9.2514  -8.9496
    -8.8746  -8.6918  -8.6635  -8.6206  -8.5595  -8.5010  -8.4723  -1.7320
     0.6357   0.7990   0.8861   1.1317   1.1977   1.5898   1.6526   1.8620
     2.3394   2.4286   2.5013   2.5464   2.8741   2.9748   3.1619   3.2609
     3.4686

          k = 0.0205 0.2480-0.4344 ( 14827 PWs)   bands (ev):

   -44.1995 -26.3587 -25.2928 -25.2100 -25.2084 -22.7489 -22.6545 -22.6543
   -16.6929 -16.6920 -16.5682 -16.3068 -16.3060 -12.5300 -12.2682 -12.1900
   -12.1775 -11.5363 -11.4797 -10.0248  -9.7242  -9.7167  -9.2909  -8.9762
    -8.8848  -8.7079  -8.6341  -8.6051  -8.5358  -8.4809  -8.4672  -1.7244
     0.6335   0.7842   0.8868   1.1124   1.2095   1.5799   1.6367   1.8718
     2.3325   2.4265   2.5183   2.5496   2.8726   3.0120   3.1078   3.2625
     3.4593

          k =-0.0000 0.2275-0.2275 ( 14803 PWs)   bands (ev):

   -44.1995 -26.3587 -25.2935 -25.2094 -25.2083 -22.7489 -22.6544 -22.6543
   -16.6928 -16.6924 -16.5682 -16.3063 -16.3059 -12.5240 -12.2550 -12.1919
   -12.1860 -11.5298 -11.5018 -10.0243  -9.7228  -9.7177  -9.2567  -8.9481
    -8.8755  -8.7436  -8.6537  -8.6096  -8.5523  -8.4793  -8.4672  -1.7576
     0.6993   0.7920   0.8487   1.1461   1.2062   1.6163   1.6276   1.8922
     2.3464   2.4187   2.5374   2.5815   2.8585   2.9770   3.1378   3.2794
     3.4899

          k =-0.0822 0.3728 0.3728 ( 14792 PWs)   bands (ev):

   -44.1995 -26.3587 -25.2927 -25.2096 -25.2089 -22.7490 -22.6544 -22.6543
   -16.6928 -16.6918 -16.5682 -16.3071 -16.3062 -12.5368 -12.2858 -12.1851
   -12.1773 -11.5255 -11.4713 -10.0261  -9.7208  -9.7187  -9.2634  -8.9665
    -8.8497  -8.7256  -8.6375  -8.5847  -8.5808  -8.5051  -8.4692  -1.7064
     0.5745   0.8437   0.8822   1.1509   1.1519   1.5795   1.6563   1.8438
     2.3329   2.4137   2.4180   2.5666   2.8877   3.0437   3.1642   3.2039
     3.4432

          k = 0.0000 0.4550-0.4550 ( 14808 PWs)   bands (ev):

   -44.1995 -26.3587 -25.2925 -25.2100 -25.2087 -22.7489 -22.6545 -22.6543
   -16.6928 -16.6918 -16.5682 -16.3071 -16.3062 -12.5362 -12.2849 -12.1851
   -12.1756 -11.5271 -11.4697 -10.0259  -9.7224  -9.7179  -9.2841  -8.9794
    -8.8864  -8.7018  -8.6077  -8.5996  -8.5522  -8.5032  -8.4672  -1.7016
     0.5739   0.8293   0.8874   1.1161   1.1827   1.5722   1.6473   1.8469
     2.3274   2.3906   2.4574   2.5648   2.8870   3.0869   3.0990   3.2189
     3.4368

          k = 0.1659 0.1659 0.1659 ( 14842 PWs)   bands (ev):

   -44.1995 -26.3587 -25.2943 -25.2084 -25.2084 -22.7491 -22.6543 -22.6543
   -16.6925 -16.6925 -16.5682 -16.3063 -16.3063 -12.5328 -12.2662 -12.1906
   -12.1906 -11.5111 -11.5111 -10.0256  -9.7179  -9.7179  -9.0936  -8.8576
    -8.8576  -8.7222  -8.7222  -8.6944  -8.6202  -8.5108  -8.5108  -1.7601
     0.6643   0.8537   0.8537   1.1797   1.1797   1.6576   1.6576   1.8173
     2.3945   2.3945   2.5015   2.5418   2.8929   2.8929   3.2762   3.2762
     3.5000

          k = 0.1453 0.1453 0.3728 ( 14817 PWs)   bands (ev):

   -44.1995 -26.3587 -25.2935 -25.2092 -25.2084 -22.7490 -22.6544 -22.6543
   -16.6927 -16.6920 -16.5682 -16.3068 -16.3063 -12.5390 -12.2793 -12.1893
   -12.1800 -11.5235 -11.4825 -10.0259  -9.7204  -9.7161  -9.1729  -8.9082
    -8.8478  -8.7072  -8.6897  -8.6432  -8.5826  -8.5235  -8.5114  -1.7237
     0.5884   0.8314   0.9056   1.1439   1.1877   1.6178   1.6516   1.8152
     2.3579   2.4215   2.4663   2.5199   2.9000   2.9688   3.1977   3.2670
     3.4657

          k = 0.2275 0.2275-0.4550 ( 14850 PWs)   bands (ev):

   -44.1995 -26.3587 -25.2928 -25.2099 -25.2084 -22.7490 -22.6545 -22.6543
   -16.6927 -16.6920 -16.5682 -16.3069 -16.3062 -12.5361 -12.2779 -12.1878
   -12.1763 -11.5257 -11.4791 -10.0254  -9.7235  -9.7159  -9.2692  -8.9639
    -8.8456  -8.7030  -8.7001  -8.5869  -8.5460  -8.4949  -8.4740  -1.7109
     0.5849   0.8054   0.9037   1.1200   1.1980   1.5954   1.6233   1.8464
     2.3524   2.3872   2.5024   2.5380   2.9116   3.0122   3.1174   3.2505
     3.4483

          k = 0.2069 0.2069-0.2480 ( 14816 PWs)   bands (ev):

   -44.1995 -26.3587 -25.2932 -25.2096 -25.2084 -22.7489 -22.6544 -22.6543
   -16.6925 -16.6925 -16.5682 -16.3063 -16.3062 -12.5275 -12.2651 -12.1878
   -12.1847 -11.5145 -11.5054 -10.0247  -9.7229  -9.7176  -9.2719  -8.9637
    -8.8486  -8.7269  -8.7046  -8.5703  -8.5522  -8.4877  -8.4590  -1.7399
     0.6588   0.8104   0.8521   1.1431   1.1910   1.6054   1.6279   1.8800
     2.3639   2.3831   2.5323   2.5503   2.9119   2.9840   3.1288   3.2502
     3.4706

          k = 0.1248 0.3523 0.3523 ( 14796 PWs)   bands (ev):

   -44.1995 -26.3587 -25.2932 -25.2090 -25.2089 -22.7491 -22.6544 -22.6543
   -16.6925 -16.6919 -16.5682 -16.3071 -16.3065 -12.5470 -12.2938 -12.1838
   -12.1777 -11.5118 -11.4759 -10.0266  -9.7177  -9.7177  -9.1675  -8.9090
    -8.8520  -8.7326  -8.6643  -8.6024  -8.5935  -8.5444  -8.5202  -1.6961
     0.5182   0.8732   0.9108   1.1501   1.1631   1.6010   1.6559   1.7886
     2.3490   2.3804   2.4238   2.5362   2.9355   3.0255   3.1906   3.2202
     3.4405

          k = 0.2069 0.4344-0.4755 ( 14815 PWs)   bands (ev):

   -44.1995 -26.3587 -25.2926 -25.2097 -25.2088 -22.7490 -22.6545 -22.6543
   -16.6925 -16.6919 -16.5682 -16.3071 -16.3065 -12.5441 -12.2935 -12.1824
   -12.1755 -11.5112 -11.4747 -10.0263  -9.7211  -9.7169  -9.2450  -8.9519
    -8.8754  -8.7012  -8.6582  -8.5843  -8.5515  -8.5325  -8.4834  -1.6877
     0.5201   0.8561   0.9043   1.1271   1.1746   1.5836   1.6347   1.8168
     2.3167   2.3803   2.4474   2.5514   2.9544   3.0705   3.1166   3.2004
     3.4263

          k = 0.1864 0.4139-0.2686 ( 14797 PWs)   bands (ev):

   -44.1995 -26.3587 -25.2926 -25.2100 -25.2086 -22.7489 -22.6545 -22.6543
   -16.6927 -16.6920 -16.5682 -16.3068 -16.3063 -12.5337 -12.2795 -12.1850
   -12.1785 -11.5177 -11.4849 -10.0254  -9.7230  -9.7176  -9.2869  -8.9779
    -8.8862  -8.6955  -8.6623  -8.5682  -8.5456  -8.4989  -8.4608  -1.7103
     0.5956   0.8223   0.8765   1.1182   1.1888   1.5787   1.6363   1.8564
     2.3286   2.4017   2.4718   2.5590   2.9507   3.0108   3.1225   3.2137
     3.4415

          k = 0.2891-0.3933-0.3933 ( 14791 PWs)   bands (ev):

   -44.1995 -26.3587 -25.2925 -25.2098 -25.2089 -22.7490 -22.6545 -22.6543
   -16.6925 -16.6919 -16.5682 -16.3071 -16.3066 -12.5427 -12.2943 -12.1802
   -12.1772 -11.5067 -11.4780 -10.0264  -9.7211  -9.7175  -9.2626  -8.9664
    -8.8489  -8.7240  -8.6649  -8.5789  -8.5584  -8.5085  -8.4701  -1.6874
     0.5242   0.8735   0.8814   1.1402   1.1560   1.5803   1.6352   1.8252
     2.3031   2.4107   2.4113   2.5637   2.9765   3.0624   3.1465   3.1521
     3.4235

          k = 0.3317 0.3317 0.3317 ( 14815 PWs)   bands (ev):

   -44.1995 -26.3587 -25.2933 -25.2089 -25.2089 -22.7492 -22.6544 -22.6544
   -16.6921 -16.6921 -16.5682 -16.3071 -16.3071 -12.5593 -12.3064 -12.1780
   -12.1780 -11.4853 -11.4853 -10.0272  -9.7161  -9.7161  -9.0822  -8.8584
    -8.8584  -8.7412  -8.7412  -8.6175  -8.5634  -8.5629  -8.5629  -1.6697
     0.4373   0.9247   0.9247   1.1548   1.1548   1.6327   1.6327   1.7234
     2.2921   2.4043   2.4043   2.5290   3.0281   3.0281   3.1916   3.1916
     3.4222

          k = 0.4139 0.4139-0.4961 ( 14803 PWs)   bands (ev):

   -44.1995 -26.3587 -25.2928 -25.2093 -25.2089 -22.7491 -22.6544 -22.6544
   -16.6921 -16.6921 -16.5682 -16.3071 -16.3071 -12.5569 -12.3062 -12.1777
   -12.1758 -11.4867 -11.4824 -10.0271  -9.7182  -9.7160  -9.1658  -8.9095
    -8.8502  -8.7279  -8.7023  -8.5885  -8.5684  -8.5532  -8.5205  -1.6642
     0.4386   0.9063   0.9245   1.1441   1.1599   1.6055   1.6183   1.7612
     2.2706   2.4023   2.4212   2.5403   3.0490   3.0615   3.1332   3.1667
     3.4119

     highest occupied level (ev):     3.5468

!    total energy              =   -1451.77059938 Ry
     total all-electron energy =     -1451.770599 Ry
     estimated scf accuracy    <          7.9E-13 Ry

     The total energy is the sum of the following terms:
     one-electron contribution =    -423.59492894 Ry
     hartree contribution      =     273.46563136 Ry
     xc contribution           =    -119.66218930 Ry
     ewald contribution        =    -359.14385134 Ry
     one-center paw contrib.   =    -822.83526117 Ry

     convergence has been achieved in  13 iterations

     Forces acting on atoms (cartesian axes, Ry/au):

     atom    1 type  1   force =    -0.00001014   -0.00001014   -0.00001014
     atom    2 type  1   force =     0.00000856    0.00000856   -0.00001567
     atom    3 type  1   force =     0.00000856   -0.00001567    0.00000856
     atom    4 type  1   force =    -0.00001567    0.00000856    0.00000856
     atom    5 type  2   force =    -0.00000808   -0.00000808   -0.00000808
     atom    6 type  3   force =    -0.00001535   -0.00001535   -0.00001535
     atom    7 type  4   force =     0.00001559    0.00000715    0.00000715
     atom    8 type  4   force =    -0.00001580    0.00000901    0.00000901
     atom    9 type  4   force =     0.00000715    0.00001559    0.00000715
     atom   10 type  4   force =     0.00000901   -0.00001580    0.00000901
     atom   11 type  4   force =     0.00000715    0.00000715    0.00001559
     atom   12 type  4   force =     0.00000901    0.00000901   -0.00001580

     Total force =     0.000068     Total SCF correction =     0.000001


     Computing stress (Cartesian axis) and pressure

          total   stress  (Ry/bohr**3)                   (kbar)     P=       -0.03
  -0.00000020   0.00000011   0.00000011           -0.03        0.02        0.02
   0.00000011  -0.00000020   0.00000011            0.02       -0.03        0.02
   0.00000011   0.00000011  -0.00000020            0.02        0.02       -0.03

     Message from routine bfgs:
     history already reset at previous step: exiting
     Energy error            =      1.5E-08 Ry
     Gradient error          =      1.6E-05 Ry/Bohr
     Cell gradient error     =      3.0E-02 kbar

     bfgs failed after   4 scf cycles and   3 bfgs steps, convergence not achieved
     (criteria: energy <  1.0E-04 Ry, force <  1.0E-05 Ry/Bohr, cell <  5.0E-01 kbar)

     End of BFGS Geometry Optimization

     Final enthalpy           =   -1451.7705993843 Ry

     File ./K4ZrSnO6.bfgs deleted, as requested
Begin final coordinates
     new unit-cell volume =   1887.90922 a.u.^3 (   279.75928 Ang^3 )
     density =      2.74415 g/cm^3

CELL_PARAMETERS (angstrom)
   6.615573559   0.729161361   0.729161361
   0.729161361   6.615573559   0.729161361
   0.729161361   0.729161361   6.615573559

ATOMIC_POSITIONS (angstrom)
K            -0.0749236838       -0.0749236838       -0.0749236838
K             4.5351372741        4.5351372741        0.9693078217
K             4.5351372741        0.9693078217        4.5351372741
K             0.9693078217        4.5351372741        4.5351372741
Zr            2.5361056072        2.5361056072        2.5361056072
Sn            4.3779703939        4.3779703939        4.3779703939
O             4.4193005619        2.3827159848        2.3827159848
O             1.7990989336       -1.8204386585       -1.8204386585
O             2.3827159848        4.4193005619        2.3827159848
O            -1.8204386585        1.7990989336       -1.8204386585
O             2.3827159848        2.3827159848        4.4193005619
O            -1.8204386585       -1.8204386585        1.7990989336
End final coordinates



     Writing config-only to output data dir ./K4ZrSnO6.save/

     Writing all to output data dir ./K4ZrSnO6.save/

     init_run     :     16.42s CPU     16.59s WALL (       1 calls)
     electrons    :    248.36s CPU    256.34s WALL (       4 calls)
     update_pot   :     48.87s CPU     48.96s WALL (       3 calls)
     forces       :     36.84s CPU     37.07s WALL (       4 calls)
     stress       :     73.49s CPU     74.00s WALL (       4 calls)

     Called by init_run:
     wfcinit      :      2.45s CPU      2.51s WALL (       1 calls)
     potinit      :      4.46s CPU      4.48s WALL (       1 calls)
     hinit0       :      9.17s CPU      9.21s WALL (       1 calls)

     Called by electrons:
     c_bands      :    162.29s CPU    165.48s WALL (      62 calls)
     sum_band     :     38.91s CPU     41.35s WALL (      62 calls)
     v_of_rho     :      2.62s CPU      2.73s WALL (      63 calls)
     newd         :     15.68s CPU     17.32s WALL (      63 calls)
     PAW_pot      :     32.95s CPU     33.23s WALL (      66 calls)
     mix_rho      :      0.33s CPU      0.36s WALL (      62 calls)

     Called by c_bands:
     init_us_2    :      2.75s CPU      2.86s WALL (    2584 calls)
     init_us_2:cp :      2.74s CPU      2.85s WALL (    2584 calls)
     cegterg      :    153.38s CPU    156.41s WALL (    1178 calls)

     Called by *egterg:
     cdiaghg      :     33.87s CPU     34.36s WALL (    4191 calls)
     h_psi        :     85.03s CPU     87.05s WALL (    4324 calls)
     s_psi        :      9.44s CPU      9.53s WALL (    4324 calls)
     g_psi        :      1.51s CPU      1.52s WALL (    3127 calls)

     Called by h_psi:
     h_psi:calbec :     10.34s CPU     10.75s WALL (    4324 calls)
     vloc_psi     :     64.66s CPU     66.18s WALL (    4324 calls)
     add_vuspsi   :      9.57s CPU      9.66s WALL (    4324 calls)

     General routines
     calbec       :     15.69s CPU     16.32s WALL (    5939 calls)
     fft          :      2.09s CPU      2.26s WALL (     917 calls)
     ffts         :      0.22s CPU      0.22s WALL (     125 calls)
     fftw         :     68.17s CPU     69.74s WALL (  345020 calls)
     interpolate  :      0.28s CPU      0.30s WALL (      63 calls)
     davcio       :      0.00s CPU      0.01s WALL (      19 calls)

     Parallel routines

     PWSCF        :   7m 7.87s CPU   7m21.10s WALL


   This run was terminated on:   4:38:39  30Nov2025            

=------------------------------------------------------------------------------=
   JOB DONE.
=------------------------------------------------------------------------------=
STOP 3
STOP 3
STOP 3
STOP 3
STOP 3
STOP 3
STOP 3
STOP 3
STOP 3
STOP 3
STOP 3
STOP 3
STOP 3
STOP 3
STOP 3
--------------------------------------------------------------------------
Primary job  terminated normally, but 1 process returned
a non-zero exit code. Per user-direction, the job has been aborted.
--------------------------------------------------------------------------
STOP 3
--------------------------------------------------------------------------
mpirun detected that one or more processes exited with non-zero status, thus causing
the job to be terminated. The first process to do so was:

  Process name: [[32714,1],4]
  Exit code:    3
--------------------------------------------------------------------------
