
     Program PWSCF v.7.1 starts on 29Nov2025 at 23:56:19 

     This program is part of the open-source Quantum ESPRESSO suite
     for quantum simulation of materials; please cite
         "P. Giannozzi et al., J. Phys.:Condens. Matter 21 395502 (2009);
         "P. Giannozzi et al., J. Phys.:Condens. Matter 29 465901 (2017);
         "P. Giannozzi et al., J. Chem. Phys. 152 154105 (2020);
          URL http://www.quantum-espresso.org", 
     in publications or presentations arising from this work. More details at
     http://www.quantum-espresso.org/quote

     Parallel version (MPI & OpenMP), running on      16 processor cores
     Number of MPI processes:                16
     Threads/MPI process:                     1

     MPI processes distributed on     1 nodes
     102458 MiB available memory on the printing compute node when the environment starts

     Waiting for input...
     Reading input from standard input

     Current dimensions of program PWSCF are:
     Max number of different atomic species (ntypx) = 10
     Max number of k-points (npk) =  40000
     Max angular momentum in pseudopotentials (lmaxx) =  4

     File ./K4ZrSnO6.update deleted, as requested

     File ./K4ZrSnO6.bfgs deleted, as requested
     Message from routine read_pp_mesh:
     mismatch in mesh size, discarding the one in header
     Message from routine read_pp_mesh:
     mismatch in mesh size, discarding the one in header
     Message from routine read_pp_mesh:
     mismatch in mesh size, discarding the one in header
     Message from routine read_pp_mesh:
     mismatch in mesh size, discarding the one in header
     Message from routine setup:
     using ibrav=0 with symmetry is DISCOURAGED, use correct ibrav instead

     R & G space division:  proc/nbgrp/npool/nimage =      16
     Subspace diagonalization in iterative solution of the eigenvalue problem:
     a serial algorithm will be used


     Parallelization info
     --------------------
     sticks:   dense  smooth     PW     G-vecs:    dense   smooth      PW
     Min         386     193     53                22828     8077    1153
     Max         387     194     54                22830     8081    1156
     Sum        6185    3097    849               365253   129257   18469

     Using Slab Decomposition



     bravais-lattice index     =            0
     lattice parameter (alat)  =      12.7194  a.u.
     unit-cell volume          =    2057.5264 (a.u.)^3
     number of atoms/cell      =           12
     number of atomic types    =            4
     number of electrons       =        98.00
     number of Kohn-Sham states=           49
     kinetic-energy cutoff     =      60.0000  Ry
     charge density cutoff     =     480.0000  Ry
     scf convergence threshold =      1.0E-10
     mixing beta               =       0.7000
     number of iterations used =            8  plain     mixing
     energy convergence thresh.=      1.0E-04
     force convergence thresh. =      1.0E-05
     press convergence thresh. =      5.0E-01
     Exchange-correlation= SLA PW PBX PBC
                           (   1   4   3   4   0   0   0)
     nstep                     =          250


     celldm(1)=  12.719410  celldm(2)=   0.000000  celldm(3)=   0.000000
     celldm(4)=   0.000000  celldm(5)=   0.000000  celldm(6)=   0.000000

     crystal axes: (cart. coord. in units of alat)
               a(1) = (   0.999979  -0.004611  -0.004611 )  
               a(2) = (  -0.004611   0.999979  -0.004611 )  
               a(3) = (  -0.004611  -0.004611   0.999979 )  

     reciprocal axes: (cart. coord. in units 2 pi/alat)
               b(1) = (  1.000064  0.004633  0.004633 )  
               b(2) = (  0.004633  1.000064  0.004633 )  
               b(3) = (  0.004633  0.004633  1.000064 )  


     PseudoPot. # 1 for K  read from file:
     ./K.upf
     MD5 check sum: 9356cfae17991a8ac93a0af773ad5d28
     Pseudo is Projector augmented-wave + core cor, Zval =  9.0
     Generated using ATOMPAW code
     Shape of augmentation charge: SINC**2
     Using radial grid of 2342 points,  5 beta functions with: 
                l(1) =   0
                l(2) =   0
                l(3) =   1
                l(4) =   1
                l(5) =   2
     Q(r) pseudized with 0 coefficients 


     PseudoPot. # 2 for Zr read from file:
     ./Zr.upf
     MD5 check sum: 10be9e9715c592225794718718b87d8f
     Pseudo is Projector augmented-wave + core cor, Zval = 12.0
     Generated using ATOMPAW code
     Shape of augmentation charge: BESSEL
     Using radial grid of 2342 points,  6 beta functions with: 
                l(1) =   0
                l(2) =   0
                l(3) =   1
                l(4) =   1
                l(5) =   2
                l(6) =   2
     Q(r) pseudized with 0 coefficients 


     PseudoPot. # 3 for Sn read from file:
     ./Sn.upf
     MD5 check sum: f8d5c2bd65c7f969f3af92fc3a9f2821
     Pseudo is Projector augmented-wave + core cor, Zval = 14.0
     Generated using ATOMPAW code
     Shape of augmentation charge: BESSEL
     Using radial grid of 2342 points,  6 beta functions with: 
                l(1) =   0
                l(2) =   0
                l(3) =   1
                l(4) =   1
                l(5) =   2
                l(6) =   2
     Q(r) pseudized with 0 coefficients 


     PseudoPot. # 4 for O  read from file:
     ./O.upf
     MD5 check sum: 45fbb1c0d1f8837f1e386a2947d3aa26
     Pseudo is Projector augmented-wave + core cor, Zval =  6.0
     Generated using ATOMPAW code
     Shape of augmentation charge: SINC**2
     Using radial grid of 2342 points,  4 beta functions with: 
                l(1) =   0
                l(2) =   0
                l(3) =   1
                l(4) =   1
     Q(r) pseudized with 0 coefficients 


     atomic species   valence    mass     pseudopotential
        K              9.00    39.09800     K ( 1.00)
        Zr            12.00    91.22400     Zr( 1.00)
        Sn            14.00   118.71000     Sn( 1.00)
        O              6.00    15.99900     O ( 1.00)

      6 Sym. Ops. (no inversion) found



   Cartesian axes

     site n.     atom                  positions (alat units)
         1           K   tau(   1) = (  -0.0083557  -0.0083557  -0.0083557  )
         2           K   tau(   2) = (   0.4935157   0.4935157  -0.0016595  )
         3           K   tau(   3) = (   0.4935157  -0.0016595   0.4935157  )
         4           K   tau(   4) = (  -0.0016595   0.4935157   0.4935157  )
         5           Zr  tau(   5) = (   0.1935864   0.1935864   0.1935864  )
         6           Sn  tau(   6) = (   0.7734448   0.7734448   0.7734448  )
         7           O   tau(   7) = (   0.3544131   0.0312238   0.0312238  )
         8           O   tau(   8) = (   0.6435723  -0.0161057  -0.0161057  )
         9           O   tau(   9) = (   0.0312238   0.3544131   0.0312238  )
        10           O   tau(  10) = (  -0.0161057   0.6435723  -0.0161057  )
        11           O   tau(  11) = (   0.0312238   0.0312238   0.3544131  )
        12           O   tau(  12) = (  -0.0161057  -0.0161057   0.6435723  )

     number of k points=    19
                       cart. coord. in units 2pi/alat
        k(    1) = (   0.0000000   0.0000000   0.0000000), wk =   0.0160000
        k(    2) = (   0.0009266   0.0009266   0.2000128), wk =   0.0960000
        k(    3) = (   0.0018532   0.0018532   0.4000256), wk =   0.0960000
        k(    4) = (   0.0018532   0.2009394   0.2009394), wk =   0.0960000
        k(    5) = (   0.0027798   0.2018660   0.4009522), wk =   0.1920000
        k(    6) = (  -0.0009266   0.1981596  -0.3990990), wk =   0.1920000
        k(    7) = (   0.0000000   0.1990862  -0.1990862), wk =   0.0960000
        k(    8) = (   0.0037064   0.4018788   0.4018788), wk =   0.0960000
        k(    9) = (   0.0000000   0.3981724  -0.3981724), wk =   0.0960000
        k(   10) = (   0.2018660   0.2018660   0.2018660), wk =   0.0320000
        k(   11) = (   0.2027926   0.2027926   0.4018788), wk =   0.0960000
        k(   12) = (   0.1990862   0.1990862  -0.3981724), wk =   0.0960000
        k(   13) = (   0.2000128   0.2000128  -0.1981596), wk =   0.0960000
        k(   14) = (   0.2037192   0.4028054   0.4028054), wk =   0.0960000
        k(   15) = (   0.2000128   0.3990990  -0.3972458), wk =   0.1920000
        k(   16) = (   0.2009394   0.4000256  -0.1972330), wk =   0.1920000
        k(   17) = (   0.1963064  -0.4009522  -0.4009522), wk =   0.0960000
        k(   18) = (   0.4037320   0.4037320   0.4037320), wk =   0.0320000
        k(   19) = (   0.4000256   0.4000256  -0.3963192), wk =   0.0960000

     Dense  grid:   365253 G-vectors     FFT dimensions: (  90,  90,  90)

     Smooth grid:   129257 G-vectors     FFT dimensions: (  64,  64,  64)

     Estimated max dynamical RAM per process >     116.62 MB

     Estimated total dynamical RAM >       1.82 GB

     Initial potential from superposition of free atoms

     starting charge      97.9154, renormalised to      98.0000
     Starting wfcs are  136 randomized atomic wfcs
     Checking if some PAW data can be deallocated... 

     total cpu time spent up to now is       18.9 secs

     per-process dynamical memory:    81.6 Mb

     Self-consistent Calculation

     iteration #  1     ecut=    60.00 Ry     beta= 0.70
     Davidson diagonalization with overlap
     ethr =  1.00E-02,  avg # of iterations =  2.0

     total cpu time spent up to now is       22.6 secs

     total energy              =   -1446.70555175 Ry
     estimated scf accuracy    <       6.66761664 Ry

     iteration #  2     ecut=    60.00 Ry     beta= 0.70
     Davidson diagonalization with overlap
     ethr =  6.80E-03,  avg # of iterations =  7.2

     total cpu time spent up to now is       30.4 secs

     total energy              =   -1440.36454279 Ry
     estimated scf accuracy    <      79.99215362 Ry

     iteration #  3     ecut=    60.00 Ry     beta= 0.70
     Davidson diagonalization with overlap
     ethr =  6.80E-03,  avg # of iterations =  7.2

     total cpu time spent up to now is       37.4 secs

     total energy              =   -1450.73233183 Ry
     estimated scf accuracy    <       1.43636245 Ry

     iteration #  4     ecut=    60.00 Ry     beta= 0.70
     Davidson diagonalization with overlap
     ethr =  1.47E-03,  avg # of iterations =  5.7

     total cpu time spent up to now is       42.2 secs

     total energy              =   -1451.01330546 Ry
     estimated scf accuracy    <       0.59980522 Ry

     iteration #  5     ecut=    60.00 Ry     beta= 0.70
     Davidson diagonalization with overlap
     ethr =  6.12E-04,  avg # of iterations =  1.2

     total cpu time spent up to now is       45.8 secs

     total energy              =   -1450.94114873 Ry
     estimated scf accuracy    <       0.49492582 Ry

     iteration #  6     ecut=    60.00 Ry     beta= 0.70
     Davidson diagonalization with overlap
     ethr =  5.05E-04,  avg # of iterations =  1.4

     total cpu time spent up to now is       49.4 secs

     total energy              =   -1450.82989755 Ry
     estimated scf accuracy    <       0.31340645 Ry

     iteration #  7     ecut=    60.00 Ry     beta= 0.70
     Davidson diagonalization with overlap
     ethr =  3.20E-04,  avg # of iterations =  4.4

     total cpu time spent up to now is       54.2 secs

     total energy              =   -1450.88525255 Ry
     estimated scf accuracy    <       0.02508055 Ry

     iteration #  8     ecut=    60.00 Ry     beta= 0.70
     Davidson diagonalization with overlap
     ethr =  2.56E-05,  avg # of iterations =  2.7

     total cpu time spent up to now is       58.1 secs

     total energy              =   -1450.88553015 Ry
     estimated scf accuracy    <       0.02704773 Ry

     iteration #  9     ecut=    60.00 Ry     beta= 0.70
     Davidson diagonalization with overlap
     ethr =  2.56E-05,  avg # of iterations =  1.0

     total cpu time spent up to now is       61.6 secs

     total energy              =   -1450.87714022 Ry
     estimated scf accuracy    <       0.02436930 Ry

     iteration # 10     ecut=    60.00 Ry     beta= 0.70
     Davidson diagonalization with overlap
     ethr =  2.49E-05,  avg # of iterations =  4.4

     total cpu time spent up to now is       66.6 secs

     total energy              =   -1450.88176706 Ry
     estimated scf accuracy    <       0.01147311 Ry

     iteration # 11     ecut=    60.00 Ry     beta= 0.70
     Davidson diagonalization with overlap
     ethr =  1.17E-05,  avg # of iterations =  1.3

     total cpu time spent up to now is       70.2 secs

     total energy              =   -1450.88102509 Ry
     estimated scf accuracy    <       0.00588835 Ry

     iteration # 12     ecut=    60.00 Ry     beta= 0.70
     Davidson diagonalization with overlap
     ethr =  6.01E-06,  avg # of iterations =  4.8

     total cpu time spent up to now is       74.8 secs

     total energy              =   -1450.88124926 Ry
     estimated scf accuracy    <       0.00142175 Ry

     iteration # 13     ecut=    60.00 Ry     beta= 0.70
     Davidson diagonalization with overlap
     ethr =  1.45E-06,  avg # of iterations =  3.9

     total cpu time spent up to now is       79.1 secs

     total energy              =   -1450.88131236 Ry
     estimated scf accuracy    <       0.00052169 Ry

     iteration # 14     ecut=    60.00 Ry     beta= 0.70
     Davidson diagonalization with overlap
     ethr =  5.32E-07,  avg # of iterations =  4.7

     total cpu time spent up to now is       83.8 secs

     total energy              =   -1450.88123690 Ry
     estimated scf accuracy    <       0.00049421 Ry

     iteration # 15     ecut=    60.00 Ry     beta= 0.70
     Davidson diagonalization with overlap
     ethr =  5.04E-07,  avg # of iterations =  3.0

     total cpu time spent up to now is       88.0 secs

     total energy              =   -1450.88127294 Ry
     estimated scf accuracy    <       0.00005961 Ry

     iteration # 16     ecut=    60.00 Ry     beta= 0.70
     Davidson diagonalization with overlap
     ethr =  6.08E-08,  avg # of iterations =  5.7

     total cpu time spent up to now is       93.3 secs

     total energy              =   -1450.88128086 Ry
     estimated scf accuracy    <       0.00004456 Ry

     iteration # 17     ecut=    60.00 Ry     beta= 0.70
     Davidson diagonalization with overlap
     ethr =  4.55E-08,  avg # of iterations =  2.5

     total cpu time spent up to now is       97.4 secs

     total energy              =   -1450.88127889 Ry
     estimated scf accuracy    <       0.00002713 Ry

     iteration # 18     ecut=    60.00 Ry     beta= 0.70
     Davidson diagonalization with overlap
     ethr =  2.77E-08,  avg # of iterations =  5.4

     total cpu time spent up to now is      102.1 secs

     total energy              =   -1450.88128170 Ry
     estimated scf accuracy    <       0.00000480 Ry

     iteration # 19     ecut=    60.00 Ry     beta= 0.70
     Davidson diagonalization with overlap
     ethr =  4.90E-09,  avg # of iterations =  3.6

     total cpu time spent up to now is      106.5 secs

     total energy              =   -1450.88128172 Ry
     estimated scf accuracy    <       0.00000378 Ry

     iteration # 20     ecut=    60.00 Ry     beta= 0.70
     Davidson diagonalization with overlap
     ethr =  3.86E-09,  avg # of iterations =  3.6

     total cpu time spent up to now is      110.7 secs

     total energy              =   -1450.88128169 Ry
     estimated scf accuracy    <       0.00000122 Ry

     iteration # 21     ecut=    60.00 Ry     beta= 0.70
     Davidson diagonalization with overlap
     ethr =  1.25E-09,  avg # of iterations =  6.1

     total cpu time spent up to now is      115.7 secs

     total energy              =   -1450.88128182 Ry
     estimated scf accuracy    <       0.00000014 Ry

     iteration # 22     ecut=    60.00 Ry     beta= 0.70
     Davidson diagonalization with overlap
     ethr =  1.39E-10,  avg # of iterations =  6.6

     total cpu time spent up to now is      121.6 secs

     total energy              =   -1450.88133053 Ry
     estimated scf accuracy    <       0.00092567 Ry

     iteration # 23     ecut=    60.00 Ry     beta= 0.70
     Davidson diagonalization with overlap
     ethr =  1.39E-10,  avg # of iterations =  1.0

     total cpu time spent up to now is      125.1 secs

     total energy              =   -1450.88132960 Ry
     estimated scf accuracy    <       0.00092337 Ry

     iteration # 24     ecut=    60.00 Ry     beta= 0.70
     Davidson diagonalization with overlap
     ethr =  1.39E-10,  avg # of iterations =  4.1

     total cpu time spent up to now is      129.3 secs

     total energy              =   -1450.88132828 Ry
     estimated scf accuracy    <       0.00091087 Ry

     iteration # 25     ecut=    60.00 Ry     beta= 0.70
     Davidson diagonalization with overlap
     ethr =  1.39E-10,  avg # of iterations =  4.9

     total cpu time spent up to now is      133.7 secs

     total energy              =   -1450.88132713 Ry
     estimated scf accuracy    <       0.00089613 Ry

     iteration # 26     ecut=    60.00 Ry     beta= 0.70
     Davidson diagonalization with overlap
     ethr =  1.39E-10,  avg # of iterations =  2.4

     total cpu time spent up to now is      137.5 secs

     total energy              =   -1450.88132598 Ry
     estimated scf accuracy    <       0.00088767 Ry

     iteration # 27     ecut=    60.00 Ry     beta= 0.70
     Davidson diagonalization with overlap
     ethr =  1.39E-10,  avg # of iterations =  4.7

     total cpu time spent up to now is      141.9 secs

     total energy              =   -1450.88132314 Ry
     estimated scf accuracy    <       0.00086982 Ry

     iteration # 28     ecut=    60.00 Ry     beta= 0.70
     Davidson diagonalization with overlap
     ethr =  1.39E-10,  avg # of iterations =  6.2

     total cpu time spent up to now is      147.1 secs

     total energy              =   -1450.88131690 Ry
     estimated scf accuracy    <       0.00083516 Ry

     iteration # 29     ecut=    60.00 Ry     beta= 0.70
     Davidson diagonalization with overlap
     ethr =  1.39E-10,  avg # of iterations =  6.8

     total cpu time spent up to now is      153.7 secs

     total energy              =   -1450.88132125 Ry
     estimated scf accuracy    <       0.00076352 Ry

     iteration # 30     ecut=    60.00 Ry     beta= 0.70
     Davidson diagonalization with overlap
     ethr =  1.39E-10,  avg # of iterations =  6.7

     total cpu time spent up to now is      159.3 secs

     total energy              =   -1450.88122043 Ry
     estimated scf accuracy    <       0.00081143 Ry

     iteration # 31     ecut=    60.00 Ry     beta= 0.70
     Davidson diagonalization with overlap
     ethr =  1.39E-10,  avg # of iterations = 15.5

     total cpu time spent up to now is      171.1 secs

     total energy              =   -1450.88124518 Ry
     estimated scf accuracy    <       0.00008099 Ry

     iteration # 32     ecut=    60.00 Ry     beta= 0.70
     Davidson diagonalization with overlap
     c_bands:  1 eigenvalues not converged
     c_bands:  1 eigenvalues not converged
     ethr =  1.39E-10,  avg # of iterations =  9.1

     total cpu time spent up to now is      178.6 secs

     total energy              =   -1450.88124505 Ry
     estimated scf accuracy    <       0.00002055 Ry

     iteration # 33     ecut=    60.00 Ry     beta= 0.70
     Davidson diagonalization with overlap
     ethr =  1.39E-10,  avg # of iterations =  6.7

     total cpu time spent up to now is      185.7 secs

     total energy              =   -1450.88124475 Ry
     estimated scf accuracy    <       0.00000535 Ry

     iteration # 34     ecut=    60.00 Ry     beta= 0.70
     Davidson diagonalization with overlap
     ethr =  1.39E-10,  avg # of iterations =  6.6

     total cpu time spent up to now is      192.3 secs

     total energy              =   -1450.88124490 Ry
     estimated scf accuracy    <       0.00000050 Ry

     iteration # 35     ecut=    60.00 Ry     beta= 0.70
     Davidson diagonalization with overlap
     ethr =  1.39E-10,  avg # of iterations =  5.9

     total cpu time spent up to now is      197.3 secs

     total energy              =   -1450.88124492 Ry
     estimated scf accuracy    <       0.00000003 Ry

     iteration # 36     ecut=    60.00 Ry     beta= 0.70
     Davidson diagonalization with overlap
     ethr =  3.45E-11,  avg # of iterations =  6.3

     total cpu time spent up to now is      202.3 secs

     End of self-consistent calculation

          k = 0.0000 0.0000 0.0000 ( 16121 PWs)   bands (ev):

   -44.0893 -27.4669 -27.4641 -27.4641 -25.3569 -22.7109 -22.7109 -22.5926
   -17.2093 -17.2093 -17.1451 -17.0138 -17.0138 -13.4485 -12.9822 -12.9822
   -12.4588 -11.8361 -11.8361 -11.1196 -11.0943 -11.0943 -10.9415 -10.9415
   -10.9066 -10.8271 -10.8271 -10.8246  -9.0713  -8.1004  -8.1004  -2.2910
    -0.3531  -0.3531   0.4092   0.4228   0.4228   1.1169   1.3091   1.3091
     1.7790   2.2871   2.2871   2.5633   2.5633   2.7054   3.3031   3.9725
     3.9725

          k = 0.0009 0.0009 0.2000 ( 16141 PWs)   bands (ev):

   -44.0893 -27.4667 -27.4644 -27.4641 -25.3568 -22.7109 -22.7109 -22.5927
   -17.2094 -17.2093 -17.1451 -17.0138 -17.0138 -13.4309 -13.0886 -12.9822
   -12.3491 -11.8413 -11.8229 -11.1208 -11.0932 -11.0906 -10.9395 -10.9381
   -10.9076 -10.8269 -10.8259 -10.8235  -9.0950  -8.1427  -8.1003  -2.2841
    -0.3619  -0.2346   0.2927   0.4152   0.5398   0.9941   1.3248   1.4725
     1.7351   2.1443   2.2207   2.6026   2.7032   2.8044   3.2666   3.7603
     3.9821

          k = 0.0019 0.0019 0.4000 ( 16141 PWs)   bands (ev):

   -44.0893 -27.4662 -27.4649 -27.4641 -25.3567 -22.7110 -22.7110 -22.5929
   -17.2097 -17.2092 -17.1451 -17.0138 -17.0138 -13.3738 -13.2470 -12.9822
   -12.2179 -11.8497 -11.7957 -11.1237 -11.0896 -11.0849 -10.9363 -10.9318
   -10.9093 -10.8272 -10.8240 -10.8210  -9.1392  -8.2074  -8.1002  -2.2742
    -0.3763  -0.0522   0.2914   0.4045   0.5830   0.8544   1.3513   1.6614
     1.7140   1.9261   2.1705   2.6583   2.9139   2.9156   3.1658   3.4706
     4.0161

          k = 0.0019 0.2009 0.2009 ( 16171 PWs)   bands (ev):

   -44.0893 -27.4664 -27.4645 -27.4642 -25.3567 -22.7110 -22.7110 -22.5928
   -17.2094 -17.2093 -17.1451 -17.0138 -17.0138 -13.4495 -13.0726 -13.0234
   -12.3152 -11.8565 -11.7621 -11.1219 -11.0921 -11.0912 -10.9377 -10.9354
   -10.9103 -10.8269 -10.8243 -10.8222  -9.1184  -8.1649  -8.1212  -2.2780
    -0.2874  -0.2339   0.3144   0.4384   0.5238   0.9848   1.2837   1.4618
     1.7436   2.1478   2.2507   2.6454   2.6634   2.8384   3.2545   3.7607
     3.8527

          k = 0.0028 0.2019 0.4010 ( 16168 PWs)   bands (ev):

   -44.0893 -27.4659 -27.4649 -27.4643 -25.3566 -22.7110 -22.7110 -22.5930
   -17.2096 -17.2093 -17.1451 -17.0138 -17.0138 -13.4255 -13.1914 -13.0244
   -12.1906 -11.8719 -11.7210 -11.1224 -11.0933 -11.0864 -10.9353 -10.9299
   -10.9131 -10.8269 -10.8223 -10.8201  -9.1607  -8.2247  -8.1277  -2.2751
    -0.2798  -0.0642   0.3093   0.4255   0.5724   0.8519   1.3184   1.6036
     1.7036   2.0409   2.1496   2.7365   2.8057   2.9244   3.1717   3.5271
     3.8461

          k =-0.0009 0.1982-0.3991 ( 16147 PWs)   bands (ev):

   -44.0893 -27.4660 -27.4649 -27.4643 -25.3566 -22.7110 -22.7110 -22.5930
   -17.2097 -17.2093 -17.1450 -17.0138 -17.0138 -13.3467 -13.2986 -13.0147
   -12.1316 -11.8838 -11.7534 -11.1216 -11.0938 -11.0841 -10.9348 -10.9311
   -10.9109 -10.8268 -10.8225 -10.8205  -9.1599  -8.2249  -8.1275  -2.2785
    -0.2847  -0.0080   0.2769   0.4102   0.5865   0.7854   1.4122   1.5784
     1.8067   1.9130   2.0891   2.7615   2.9352   2.9577   3.1128   3.4521
     3.8770

          k = 0.0000 0.1991-0.1991 ( 16146 PWs)   bands (ev):

   -44.0893 -27.4665 -27.4644 -27.4643 -25.3568 -22.7110 -22.7110 -22.5928
   -17.2096 -17.2093 -17.1451 -17.0138 -17.0138 -13.3838 -13.2028 -12.9999
   -12.2159 -11.8754 -11.8072 -11.1202 -11.0939 -11.0872 -10.9371 -10.9366
   -10.9078 -10.8266 -10.8244 -10.8231  -9.1172  -8.1653  -8.1208  -2.2837
    -0.3095  -0.1363   0.2240   0.3995   0.5890   0.8795   1.4064   1.5856
     1.7319   1.9934   2.1120   2.7131   2.7764   2.9294   3.2080   3.6270
     3.9252

          k = 0.0037 0.4019 0.4019 ( 16164 PWs)   bands (ev):

   -44.0893 -27.4655 -27.4651 -27.4646 -25.3565 -22.7110 -22.7110 -22.5932
   -17.2095 -17.2093 -17.1450 -17.0138 -17.0137 -13.4484 -13.1826 -13.0824
   -12.1063 -11.8904 -11.6468 -11.1213 -11.0968 -11.0887 -10.9332 -10.9258
   -10.9195 -10.8265 -10.8199 -10.8186  -9.2004  -8.2702  -8.1513  -2.2814
    -0.1242  -0.0287   0.2779   0.4635   0.5512   0.8664   1.2504   1.6626
     1.6822   1.9856   2.2031   2.7579   2.8601   2.9426   3.1215   3.5425
     3.6460

          k = 0.0000 0.3982-0.3982 ( 16164 PWs)   bands (ev):

   -44.0893 -27.4656 -27.4649 -27.4647 -25.3565 -22.7110 -22.7110 -22.5931
   -17.2096 -17.2093 -17.1450 -17.0138 -17.0137 -13.4182 -13.2410 -13.0635
   -12.0706 -11.9003 -11.6664 -11.1193 -11.0995 -11.0858 -10.9322 -10.9286
   -10.9168 -10.8264 -10.8199 -10.8190  -9.1999  -8.2704  -8.1512  -2.2834
    -0.1437   0.0192   0.2639   0.4815   0.5547   0.7798   1.3283   1.6334
     1.7363   1.9288   2.1602   2.8492   2.8868   2.9610   3.0670   3.4848
     3.6883

          k = 0.2019 0.2019 0.2019 ( 16176 PWs)   bands (ev):

   -44.0893 -27.4662 -27.4645 -27.4645 -25.3566 -22.7110 -22.7110 -22.5930
   -17.2094 -17.2094 -17.1451 -17.0138 -17.0138 -13.4955 -13.0236 -13.0236
   -12.3674 -11.7675 -11.7675 -11.1279 -11.0881 -11.0881 -10.9333 -10.9333
   -10.9146 -10.8251 -10.8251 -10.8199  -9.1416  -8.1650  -8.1650  -2.2618
    -0.2512  -0.2512   0.4173   0.4591   0.4591   1.1679   1.1971   1.1971
     1.7977   2.3501   2.3501   2.5684   2.5684   2.8625   3.2736   3.8519
     3.8519

          k = 0.2028 0.2028 0.4019 ( 16145 PWs)   bands (ev):

   -44.0893 -27.4657 -27.4650 -27.4645 -25.3565 -22.7110 -22.7110 -22.5931
   -17.2095 -17.2093 -17.1451 -17.0138 -17.0137 -13.4933 -13.1204 -13.0235
   -12.2625 -11.7768 -11.7143 -11.1286 -11.0899 -11.0817 -10.9300 -10.9290
   -10.9175 -10.8253 -10.8232 -10.8177  -9.1825  -8.2329  -8.1647  -2.2568
    -0.2701  -0.0883   0.4018   0.4518   0.5277   0.9614   1.1810   1.4189
     1.7764   2.2212   2.2762   2.6318   2.7563   2.9540   3.2187   3.5719
     3.8603

          k = 0.1991 0.1991-0.3982 ( 16155 PWs)   bands (ev):

   -44.0893 -27.4658 -27.4648 -27.4645 -25.3566 -22.7110 -22.7110 -22.5931
   -17.2096 -17.2093 -17.1450 -17.0138 -17.0138 -13.4272 -13.2315 -13.0232
   -12.1554 -11.7792 -11.7772 -11.1246 -11.0924 -11.0816 -10.9325 -10.9301
   -10.9131 -10.8249 -10.8240 -10.8182  -9.1809  -8.2332  -8.1644  -2.2683
    -0.2651  -0.0049   0.3610   0.4281   0.5451   0.8399   1.2501   1.6045
     1.7166   2.0415   2.2046   2.6794   2.9377   2.9871   3.1206   3.4714
     3.8664

          k = 0.2000 0.2000-0.1982 ( 16135 PWs)   bands (ev):

   -44.0893 -27.4663 -27.4645 -27.4644 -25.3567 -22.7110 -22.7110 -22.5929
   -17.2095 -17.2094 -17.1450 -17.0138 -17.0138 -13.3878 -13.2240 -13.0231
   -12.1548 -11.8912 -11.7682 -11.1205 -11.0935 -11.0879 -10.9372 -10.9334
   -10.9095 -10.8263 -10.8238 -10.8215  -9.1392  -8.1655  -8.1645  -2.2814
    -0.2424  -0.0957   0.2172   0.4193   0.5725   0.8708   1.3308   1.6751
     1.7467   1.8785   2.1887   2.6685   2.8531   2.9546   3.1733   3.5960
     3.8623

          k = 0.2037 0.4028 0.4028 ( 16147 PWs)   bands (ev):

   -44.0893 -27.4653 -27.4651 -27.4648 -25.3565 -22.7111 -22.7111 -22.5933
   -17.2095 -17.2094 -17.1450 -17.0138 -17.0137 -13.5195 -13.0990 -13.0825
   -12.2092 -11.7661 -11.6534 -11.1318 -11.0839 -11.0837 -10.9288 -10.9236
   -10.9226 -10.8248 -10.8218 -10.8153  -9.2212  -8.2701  -8.1975  -2.2534
    -0.1695  -0.0558   0.3928   0.4935   0.5128   0.9595   1.1360   1.4216
     1.7840   2.2513   2.2868   2.7115   2.7173   3.0080   3.1980   3.5956
     3.6397

          k = 0.2000 0.3991-0.3972 ( 16149 PWs)   bands (ev):

   -44.0893 -27.4655 -27.4649 -27.4648 -25.3565 -22.7111 -22.7111 -22.5932
   -17.2096 -17.2094 -17.1449 -17.0138 -17.0137 -13.4778 -13.1908 -13.0676
   -12.1225 -11.7996 -11.6699 -11.1262 -11.0933 -11.0812 -10.9336 -10.9250
   -10.9173 -10.8250 -10.8217 -10.8158  -9.2197  -8.2702  -8.1975  -2.2668
    -0.1376  -0.0013   0.3494   0.5036   0.5222   0.8344   1.2113   1.5342
     1.7397   2.1281   2.2141   2.7789   2.8452   2.9564   3.1196   3.5183
     3.6852

          k = 0.2009 0.4000-0.1972 ( 16141 PWs)   bands (ev):

   -44.0893 -27.4658 -27.4649 -27.4644 -25.3566 -22.7110 -22.7110 -22.5931
   -17.2096 -17.2093 -17.1450 -17.0138 -17.0137 -13.3952 -13.2597 -13.0480
   -12.0741 -11.9016 -11.7098 -11.1196 -11.0985 -11.0841 -10.9368 -10.9279
   -10.9131 -10.8264 -10.8217 -10.8191  -9.1804  -8.2324  -8.1652  -2.2801
    -0.1696  -0.0031   0.2480   0.4318   0.5751   0.7881   1.3513   1.6256
     1.7365   1.9570   2.1255   2.7911   2.8983   2.9416   3.0904   3.5055
     3.7798

          k = 0.1963-0.4010-0.4010 ( 16131 PWs)   bands (ev):

   -44.0893 -27.4655 -27.4651 -27.4646 -25.3565 -22.7111 -22.7111 -22.5932
   -17.2095 -17.2094 -17.1449 -17.0138 -17.0137 -13.4661 -13.1992 -13.0822
   -12.0849 -11.8383 -11.6538 -11.1242 -11.0956 -11.0835 -10.9357 -10.9238
   -10.9177 -10.8254 -10.8211 -10.8161  -9.2194  -8.2698  -8.1979  -2.2735
    -0.0498  -0.0327   0.2964   0.4682   0.5455   0.8627   1.2007   1.5833
     1.7198   2.0746   2.2210   2.7460   2.9003   2.9261   3.0933   3.5386
     3.6475

          k = 0.4037 0.4037 0.4037 ( 16143 PWs)   bands (ev):

   -44.0893 -27.4651 -27.4650 -27.4650 -25.3564 -22.7111 -22.7111 -22.5934
   -17.2095 -17.2095 -17.1449 -17.0137 -17.0137 -13.5661 -13.0824 -13.0824
   -12.2188 -11.6642 -11.6642 -11.1389 -11.0759 -11.0759 -10.9308 -10.9202
   -10.9202 -10.8226 -10.8226 -10.8124  -9.2585  -8.2697  -8.2697  -2.2318
    -0.0905  -0.0905   0.4079   0.5147   0.5147   1.0521   1.0521   1.3237
     1.8330   2.4038   2.4038   2.6269   2.6269   3.0954   3.2185   3.6361
     3.6361

          k = 0.4000 0.4000-0.3963 ( 16140 PWs)   bands (ev):

   -44.0893 -27.4653 -27.4650 -27.4648 -25.3564 -22.7111 -22.7111 -22.5934
   -17.2095 -17.2095 -17.1448 -17.0137 -17.0137 -13.5437 -13.1328 -13.0822
   -12.1620 -11.6892 -11.6644 -11.1350 -11.0827 -11.0759 -10.9346 -10.9203
   -10.9180 -10.8229 -10.8223 -10.8127  -9.2572  -8.2699  -8.2695  -2.2437
    -0.0875  -0.0389   0.4161   0.4990   0.5274   0.9484   1.0831   1.4101
     1.8083   2.2960   2.3196   2.6961   2.7620   2.9832   3.1738   3.5578
     3.6407

     highest occupied level (ev):     4.0161

!    total energy              =   -1450.88124492 Ry
     total all-electron energy =     -1450.881245 Ry
     estimated scf accuracy    <          9.6E-11 Ry

     The total energy is the sum of the following terms:
     one-electron contribution =    -475.90565553 Ry
     hartree contribution      =     296.69930723 Ry
     xc contribution           =    -119.27355878 Ry
     ewald contribution        =    -329.72466564 Ry
     one-center paw contrib.   =    -822.67667221 Ry

     convergence has been achieved in  36 iterations

     Forces acting on atoms (cartesian axes, Ry/au):

     atom    1 type  1   force =     0.02035785    0.02035785    0.02035785
     atom    2 type  1   force =     0.00115498    0.00115498   -0.00366666
     atom    3 type  1   force =     0.00115498   -0.00366666    0.00115498
     atom    4 type  1   force =    -0.00366666    0.00115498    0.00115498
     atom    5 type  2   force =     0.06821894    0.06821894    0.06821894
     atom    6 type  3   force =    -0.03724820   -0.03724820   -0.03724820
     atom    7 type  4   force =    -0.00890139    0.00918632    0.00918632
     atom    8 type  4   force =     0.02806850   -0.04375582   -0.04375582
     atom    9 type  4   force =     0.00918632   -0.00890139    0.00918632
     atom   10 type  4   force =    -0.04375582    0.02806850   -0.04375582
     atom   11 type  4   force =     0.00918632    0.00918632   -0.00890139
     atom   12 type  4   force =    -0.04375582   -0.04375582    0.02806850

     Total force =     0.184419     Total SCF correction =     0.000033


     Computing stress (Cartesian axis) and pressure

          total   stress  (Ry/bohr**3)                   (kbar)     P=       49.32
   0.00033527   0.00022471   0.00022471           49.32       33.06       33.06
   0.00022471   0.00033527   0.00022471           33.06       49.32       33.06
   0.00022471   0.00022471   0.00033527           33.06       33.06       49.32


     BFGS Geometry Optimization
     Energy error            =      0.0E+00 Ry
     Gradient error          =      6.8E-02 Ry/Bohr
     Cell gradient error     =      4.9E+01 kbar

     number of scf cycles    =   1
     number of bfgs steps    =   0

     enthalpy           new  =   -1450.8812449241 Ry

     new trust radius        =       0.1181586782 bohr
     new conv_thr            =            1.0E-10 Ry

     new unit-cell volume =   2109.50196 a.u.^3 (   312.59594 Ang^3 )
     density =      2.45589 g/cm^3

CELL_PARAMETERS (angstrom)
   6.786744342   0.006339417   0.006339417
   0.006339417   6.786744342   0.006339417
   0.006339417   0.006339417   6.786744342

ATOMIC_POSITIONS (angstrom)
K            -0.0463600311       -0.0463600311       -0.0463600311
K             3.3688153536        3.3688153536        0.0241087303
K             3.3688153536        0.0241087303        3.3688153536
K             0.0241087303        3.3688153536        3.3688153536
Zr            1.3653645120        1.3653645120        1.3653645120
Sn            5.2879467949        5.2879467949        5.2879467949
O             2.4031517205        0.2314078089        0.2314078089
O             4.3815772468       -0.1089828855       -0.1089828855
O             0.2314078089        2.4031517205        0.2314078089
O            -0.1089828855        4.3815772468       -0.1089828855
O             0.2314078089        0.2314078089        2.4031517205
O            -0.1089828855       -0.1089828855        4.3815772468



     Writing config-only to output data dir ./K4ZrSnO6.save/
     NEW-OLD atomic charge density approx. for the potential
     extrapolated charge  100.41252, renormalised to   98.00000

     total cpu time spent up to now is      251.6 secs

     per-process dynamical memory:   119.0 Mb

     Self-consistent Calculation

     iteration #  1     ecut=    60.00 Ry     beta= 0.70
     Davidson diagonalization with overlap
     c_bands:  1 eigenvalues not converged
     c_bands:  1 eigenvalues not converged
     c_bands:  1 eigenvalues not converged
     c_bands:  1 eigenvalues not converged
     ethr =  1.00E-06,  avg # of iterations = 17.3

     total cpu time spent up to now is      264.1 secs

     total energy              =   -1448.94287174 Ry
     estimated scf accuracy    <       2.05980815 Ry

     iteration #  2     ecut=    60.00 Ry     beta= 0.70
     Davidson diagonalization with overlap
     ethr =  2.10E-03,  avg # of iterations =  6.1

     total cpu time spent up to now is      270.9 secs

     total energy              =   -1450.30886733 Ry
     estimated scf accuracy    <      11.05138925 Ry

     iteration #  3     ecut=    60.00 Ry     beta= 0.70
     Davidson diagonalization with overlap
     ethr =  2.10E-03,  avg # of iterations =  4.7

     total cpu time spent up to now is      276.3 secs

     total energy              =   -1451.04509714 Ry
     estimated scf accuracy    <       1.38981936 Ry

     iteration #  4     ecut=    60.00 Ry     beta= 0.70
     Davidson diagonalization with overlap
     ethr =  1.42E-03,  avg # of iterations =  3.1

     total cpu time spent up to now is      280.4 secs

     total energy              =   -1451.04421832 Ry
     estimated scf accuracy    <       0.68683520 Ry

     iteration #  5     ecut=    60.00 Ry     beta= 0.70
     Davidson diagonalization with overlap
     ethr =  7.01E-04,  avg # of iterations =  1.4

     total cpu time spent up to now is      284.1 secs

     total energy              =   -1450.97950464 Ry
     estimated scf accuracy    <       0.50718202 Ry

     iteration #  6     ecut=    60.00 Ry     beta= 0.70
     Davidson diagonalization with overlap
     ethr =  5.18E-04,  avg # of iterations =  2.4

     total cpu time spent up to now is      287.9 secs

     total energy              =   -1450.95036517 Ry
     estimated scf accuracy    <       0.28801747 Ry

     iteration #  7     ecut=    60.00 Ry     beta= 0.70
     Davidson diagonalization with overlap
     ethr =  2.94E-04,  avg # of iterations =  2.9

     total cpu time spent up to now is      291.8 secs

     total energy              =   -1450.94552037 Ry
     estimated scf accuracy    <       0.15188328 Ry

     iteration #  8     ecut=    60.00 Ry     beta= 0.70
     Davidson diagonalization with overlap
     ethr =  1.55E-04,  avg # of iterations =  2.3

     total cpu time spent up to now is      295.6 secs

     total energy              =   -1450.93674472 Ry
     estimated scf accuracy    <       0.10094044 Ry

     iteration #  9     ecut=    60.00 Ry     beta= 0.70
     Davidson diagonalization with overlap
     ethr =  1.03E-04,  avg # of iterations =  3.2

     total cpu time spent up to now is      299.6 secs

     total energy              =   -1450.93875181 Ry
     estimated scf accuracy    <       0.04592763 Ry

     iteration # 10     ecut=    60.00 Ry     beta= 0.70
     Davidson diagonalization with overlap
     ethr =  4.69E-05,  avg # of iterations =  1.7

     total cpu time spent up to now is      303.2 secs

     total energy              =   -1450.92719755 Ry
     estimated scf accuracy    <       0.03790607 Ry

     iteration # 11     ecut=    60.00 Ry     beta= 0.70
     Davidson diagonalization with overlap
     ethr =  3.87E-05,  avg # of iterations =  7.7

     total cpu time spent up to now is      309.2 secs

     total energy              =   -1450.93953471 Ry
     estimated scf accuracy    <       0.10014493 Ry

     iteration # 12     ecut=    60.00 Ry     beta= 0.70
     Davidson diagonalization with overlap
     ethr =  3.87E-05,  avg # of iterations =  1.0

     total cpu time spent up to now is      312.7 secs

     total energy              =   -1450.93972910 Ry
     estimated scf accuracy    <       0.09736765 Ry

     iteration # 13     ecut=    60.00 Ry     beta= 0.70
     Davidson diagonalization with overlap
     ethr =  3.87E-05,  avg # of iterations =  1.0

     total cpu time spent up to now is      316.2 secs

     total energy              =   -1450.93989995 Ry
     estimated scf accuracy    <       0.09685654 Ry

     iteration # 14     ecut=    60.00 Ry     beta= 0.70
     Davidson diagonalization with overlap
     ethr =  3.87E-05,  avg # of iterations =  1.0

     total cpu time spent up to now is      319.7 secs

     total energy              =   -1450.94001623 Ry
     estimated scf accuracy    <       0.09709053 Ry

     iteration # 15     ecut=    60.00 Ry     beta= 0.70
     Davidson diagonalization with overlap
     ethr =  3.87E-05,  avg # of iterations =  1.0

     total cpu time spent up to now is      323.2 secs

     total energy              =   -1450.93912297 Ry
     estimated scf accuracy    <       0.09774303 Ry

     iteration # 16     ecut=    60.00 Ry     beta= 0.70
     Davidson diagonalization with overlap
     ethr =  3.87E-05,  avg # of iterations =  1.0

     total cpu time spent up to now is      326.7 secs

     total energy              =   -1450.93707427 Ry
     estimated scf accuracy    <       0.09288621 Ry

     iteration # 17     ecut=    60.00 Ry     beta= 0.70
     Davidson diagonalization with overlap
     ethr =  3.87E-05,  avg # of iterations =  1.0

     total cpu time spent up to now is      330.2 secs

     total energy              =   -1450.93531784 Ry
     estimated scf accuracy    <       0.08139266 Ry

     iteration # 18     ecut=    60.00 Ry     beta= 0.70
     Davidson diagonalization with overlap
     ethr =  3.87E-05,  avg # of iterations =  1.0

     total cpu time spent up to now is      333.7 secs

     total energy              =   -1450.91500373 Ry
     estimated scf accuracy    <       0.07052501 Ry

     iteration # 19     ecut=    60.00 Ry     beta= 0.70
     Davidson diagonalization with overlap
     ethr =  3.87E-05,  avg # of iterations =  7.2

     total cpu time spent up to now is      339.2 secs

     total energy              =   -1450.93556644 Ry
     estimated scf accuracy    <       0.08750079 Ry

     iteration # 20     ecut=    60.00 Ry     beta= 0.70
     Davidson diagonalization with overlap
     ethr =  3.87E-05,  avg # of iterations =  4.1

     total cpu time spent up to now is      343.5 secs

     total energy              =   -1450.93454278 Ry
     estimated scf accuracy    <       0.02240493 Ry

     iteration # 21     ecut=    60.00 Ry     beta= 0.70
     Davidson diagonalization with overlap
     ethr =  2.29E-05,  avg # of iterations =  5.5

     total cpu time spent up to now is      348.2 secs

     total energy              =   -1450.93650535 Ry
     estimated scf accuracy    <       0.00045124 Ry

     iteration # 22     ecut=    60.00 Ry     beta= 0.70
     Davidson diagonalization with overlap
     ethr =  4.60E-07,  avg # of iterations =  6.6

     total cpu time spent up to now is      354.4 secs

     total energy              =   -1450.93672597 Ry
     estimated scf accuracy    <       0.00427667 Ry

     iteration # 23     ecut=    60.00 Ry     beta= 0.70
     Davidson diagonalization with overlap
     ethr =  4.60E-07,  avg # of iterations =  3.1

     total cpu time spent up to now is      358.3 secs

     total energy              =   -1450.93657981 Ry
     estimated scf accuracy    <       0.00316134 Ry

     iteration # 24     ecut=    60.00 Ry     beta= 0.70
     Davidson diagonalization with overlap
     ethr =  4.60E-07,  avg # of iterations =  5.7

     total cpu time spent up to now is      363.0 secs

     total energy              =   -1450.93654782 Ry
     estimated scf accuracy    <       0.00143368 Ry

     iteration # 25     ecut=    60.00 Ry     beta= 0.70
     Davidson diagonalization with overlap
     ethr =  4.60E-07,  avg # of iterations =  1.0

     total cpu time spent up to now is      366.5 secs

     total energy              =   -1450.93648437 Ry
     estimated scf accuracy    <       0.00114163 Ry

     iteration # 26     ecut=    60.00 Ry     beta= 0.70
     Davidson diagonalization with overlap
     ethr =  4.60E-07,  avg # of iterations =  5.2

     total cpu time spent up to now is      370.9 secs

     total energy              =   -1450.93649513 Ry
     estimated scf accuracy    <       0.00017195 Ry

     iteration # 27     ecut=    60.00 Ry     beta= 0.70
     Davidson diagonalization with overlap
     ethr =  1.75E-07,  avg # of iterations =  7.1

     total cpu time spent up to now is      375.9 secs

     total energy              =   -1450.93673385 Ry
     estimated scf accuracy    <       0.00116401 Ry

     iteration # 28     ecut=    60.00 Ry     beta= 0.70
     Davidson diagonalization with overlap
     ethr =  1.75E-07,  avg # of iterations =  1.1

     total cpu time spent up to now is      379.4 secs

     total energy              =   -1450.93669695 Ry
     estimated scf accuracy    <       0.00103391 Ry

     iteration # 29     ecut=    60.00 Ry     beta= 0.70
     Davidson diagonalization with overlap
     ethr =  1.75E-07,  avg # of iterations =  5.1

     total cpu time spent up to now is      383.8 secs

     total energy              =   -1450.93670547 Ry
     estimated scf accuracy    <       0.00036421 Ry

     iteration # 30     ecut=    60.00 Ry     beta= 0.70
     Davidson diagonalization with overlap
     ethr =  1.75E-07,  avg # of iterations =  1.0

     total cpu time spent up to now is      387.3 secs

     total energy              =   -1450.93667592 Ry
     estimated scf accuracy    <       0.00034358 Ry

     iteration # 31     ecut=    60.00 Ry     beta= 0.70
     Davidson diagonalization with overlap
     ethr =  1.75E-07,  avg # of iterations =  5.6

     total cpu time spent up to now is      391.9 secs

     total energy              =   -1450.93668623 Ry
     estimated scf accuracy    <       0.00003060 Ry

     iteration # 32     ecut=    60.00 Ry     beta= 0.70
     Davidson diagonalization with overlap
     ethr =  3.12E-08,  avg # of iterations =  4.5

     total cpu time spent up to now is      396.2 secs

     total energy              =   -1450.93668685 Ry
     estimated scf accuracy    <       0.00000865 Ry

     iteration # 33     ecut=    60.00 Ry     beta= 0.70
     Davidson diagonalization with overlap
     ethr =  8.83E-09,  avg # of iterations =  6.8

     total cpu time spent up to now is      401.4 secs

     total energy              =   -1450.93668828 Ry
     estimated scf accuracy    <       0.00000122 Ry

     iteration # 34     ecut=    60.00 Ry     beta= 0.70
     Davidson diagonalization with overlap
     ethr =  1.25E-09,  avg # of iterations =  2.7

     total cpu time spent up to now is      405.3 secs

     total energy              =   -1450.93668827 Ry
     estimated scf accuracy    <       0.00000142 Ry

     iteration # 35     ecut=    60.00 Ry     beta= 0.70
     Davidson diagonalization with overlap
     ethr =  1.25E-09,  avg # of iterations =  1.0

     total cpu time spent up to now is      408.8 secs

     total energy              =   -1450.93668839 Ry
     estimated scf accuracy    <       0.00000127 Ry

     iteration # 36     ecut=    60.00 Ry     beta= 0.70
     Davidson diagonalization with overlap
     ethr =  1.25E-09,  avg # of iterations =  5.1

     total cpu time spent up to now is      413.2 secs

     total energy              =   -1450.93668913 Ry
     estimated scf accuracy    <       0.00000307 Ry

     iteration # 37     ecut=    60.00 Ry     beta= 0.70
     Davidson diagonalization with overlap
     ethr =  1.25E-09,  avg # of iterations =  5.5

     total cpu time spent up to now is      418.5 secs

     total energy              =   -1450.93668965 Ry
     estimated scf accuracy    <       0.00001207 Ry

     iteration # 38     ecut=    60.00 Ry     beta= 0.70
     Davidson diagonalization with overlap
     ethr =  1.25E-09,  avg # of iterations =  6.1

     total cpu time spent up to now is      423.5 secs

     total energy              =   -1450.93668985 Ry
     estimated scf accuracy    <       0.00001871 Ry

     iteration # 39     ecut=    60.00 Ry     beta= 0.70
     Davidson diagonalization with overlap
     ethr =  1.25E-09,  avg # of iterations =  4.9

     total cpu time spent up to now is      428.2 secs

     total energy              =   -1450.93669081 Ry
     estimated scf accuracy    <       0.00001750 Ry

     iteration # 40     ecut=    60.00 Ry     beta= 0.70
     Davidson diagonalization with overlap
     ethr =  1.25E-09,  avg # of iterations =  6.2

     total cpu time spent up to now is      433.8 secs

     total energy              =   -1450.93668823 Ry
     estimated scf accuracy    <       0.00003575 Ry

     iteration # 41     ecut=    60.00 Ry     beta= 0.70
     Davidson diagonalization with overlap
     ethr =  1.25E-09,  avg # of iterations =  6.5

     total cpu time spent up to now is      439.5 secs

     total energy              =   -1450.93668735 Ry
     estimated scf accuracy    <       0.00000921 Ry

     iteration # 42     ecut=    60.00 Ry     beta= 0.70
     Davidson diagonalization with overlap
     ethr =  1.25E-09,  avg # of iterations =  6.7

     total cpu time spent up to now is      445.4 secs

     total energy              =   -1450.93668812 Ry
     estimated scf accuracy    <       0.00000013 Ry

     iteration # 43     ecut=    60.00 Ry     beta= 0.70
     Davidson diagonalization with overlap
     ethr =  1.28E-10,  avg # of iterations =  3.5

     total cpu time spent up to now is      450.0 secs

     total energy              =   -1450.93668814 Ry
     estimated scf accuracy    <          4.7E-09 Ry

     iteration # 44     ecut=    60.00 Ry     beta= 0.70
     Davidson diagonalization with overlap
     ethr =  4.78E-12,  avg # of iterations =  6.2

     total cpu time spent up to now is      455.9 secs

     total energy              =   -1450.93668814 Ry
     estimated scf accuracy    <          7.3E-10 Ry

     iteration # 45     ecut=    60.00 Ry     beta= 0.70
     Davidson diagonalization with overlap
     ethr =  7.48E-13,  avg # of iterations =  4.0

     total cpu time spent up to now is      460.4 secs

     total energy              =   -1450.93668814 Ry
     estimated scf accuracy    <          1.5E-10 Ry

     iteration # 46     ecut=    60.00 Ry     beta= 0.70
     Davidson diagonalization with overlap
     ethr =  1.50E-13,  avg # of iterations =  6.6

     total cpu time spent up to now is      466.0 secs

     End of self-consistent calculation

          k = 0.0000 0.0000 0.0000 ( 16121 PWs)   bands (ev):

   -44.4324 -27.7097 -27.7074 -27.7074 -25.1423 -22.9534 -22.9534 -22.9140
   -17.3207 -17.3207 -17.2149 -17.1346 -17.1346 -13.5039 -13.1013 -13.1013
   -12.6258 -12.0328 -12.0328 -11.3641 -11.3369 -11.3369 -11.1778 -11.1778
   -11.1477 -11.0725 -11.0725 -11.0686  -8.8770  -8.0527  -8.0527  -2.4816
    -0.3579  -0.3579   0.2940   0.3554   0.3554   0.9417   1.1228   1.1228
     1.7117   2.1025   2.1025   2.3873   2.3873   2.4636   3.1357   3.7026
     3.7026

          k =-0.0002-0.0002 0.1984 ( 16141 PWs)   bands (ev):

   -44.4324 -27.7095 -27.7076 -27.7074 -25.1422 -22.9534 -22.9534 -22.9141
   -17.3208 -17.3207 -17.2149 -17.1346 -17.1345 -13.4923 -13.1963 -13.1010
   -12.5265 -12.0383 -12.0209 -11.3647 -11.3356 -11.3331 -11.1761 -11.1748
   -11.1483 -11.0721 -11.0715 -11.0679  -8.9013  -8.0867  -8.0527  -2.4744
    -0.3669  -0.2585   0.2060   0.3489   0.4490   0.8381   1.1425   1.2731
     1.6520   1.9752   2.0552   2.4199   2.5180   2.5696   3.0964   3.4849
     3.7136

          k =-0.0004-0.0004 0.3967 ( 16141 PWs)   bands (ev):

   -44.4324 -27.7091 -27.7080 -27.7074 -25.1421 -22.9535 -22.9535 -22.9142
   -17.3211 -17.3207 -17.2149 -17.1346 -17.1345 -13.4545 -13.3300 -13.1005
   -12.4082 -12.0470 -11.9976 -11.3670 -11.3314 -11.3273 -11.1733 -11.1693
   -11.1493 -11.0721 -11.0697 -11.0660  -8.9456  -8.1377  -8.0526  -2.4639
    -0.3815  -0.1289   0.2381   0.3404   0.4818   0.7220   1.1755   1.5164
     1.5589   1.7660   2.0219   2.4800   2.6852   2.7169   2.9971   3.1986
     3.7165

          k =-0.0004 0.1982 0.1982 ( 16171 PWs)   bands (ev):

   -44.4324 -27.7093 -27.7077 -27.7075 -25.1421 -22.9535 -22.9534 -22.9142
   -17.3208 -17.3208 -17.2149 -17.1346 -17.1345 -13.5149 -13.1803 -13.1380
   -12.4926 -12.0489 -11.9711 -11.3650 -11.3351 -11.3335 -11.1746 -11.1724
   -11.1504 -11.0722 -11.0699 -11.0667  -8.9249  -8.1048  -8.0694  -2.4683
    -0.3051  -0.2546   0.2351   0.3639   0.4378   0.8224   1.1078   1.2662
     1.6605   1.9755   2.0902   2.4529   2.4862   2.6114   3.0862   3.4859
     3.5990

          k =-0.0006 0.1980 0.3965 ( 16168 PWs)   bands (ev):

   -44.4324 -27.7089 -27.7080 -27.7075 -25.1420 -22.9535 -22.9535 -22.9143
   -17.3210 -17.3207 -17.2148 -17.1346 -17.1345 -13.5045 -13.2808 -13.1384
   -12.3824 -12.0582 -11.9376 -11.3649 -11.3357 -11.3292 -11.1724 -11.1676
   -11.1525 -11.0720 -11.0680 -11.0652  -8.9675  -8.1521  -8.0745  -2.4638
    -0.2981  -0.1263   0.2515   0.3509   0.4830   0.7081   1.1482   1.4224
     1.5965   1.8861   1.9933   2.5523   2.5968   2.7023   3.0049   3.2588
     3.5958

          k = 0.0002 0.1987-0.3969 ( 16147 PWs)   bands (ev):

   -44.4324 -27.7089 -27.7080 -27.7075 -25.1420 -22.9535 -22.9535 -22.9143
   -17.3211 -17.3207 -17.2148 -17.1345 -17.1345 -13.4496 -13.3606 -13.1296
   -12.3359 -12.0638 -11.9659 -11.3648 -11.3358 -11.3266 -11.1720 -11.1686
   -11.1509 -11.0718 -11.0681 -11.0657  -8.9671  -8.1523  -8.0743  -2.4662
    -0.3014  -0.0936   0.2321   0.3442   0.4836   0.6609   1.2374   1.4460
     1.6663   1.7468   1.9283   2.5761   2.7122   2.7443   2.9480   3.1668
     3.6190

          k =-0.0000 0.1985-0.1985 ( 16146 PWs)   bands (ev):

   -44.4324 -27.7093 -27.7076 -27.7075 -25.1422 -22.9535 -22.9534 -22.9141
   -17.3209 -17.3207 -17.2148 -17.1345 -17.1345 -13.4544 -13.2976 -13.1167
   -12.4112 -12.0606 -12.0104 -11.3641 -11.3362 -11.3295 -11.1739 -11.1734
   -11.1485 -11.0719 -11.0699 -11.0678  -8.9242  -8.1050  -8.0691  -2.4723
    -0.3220  -0.1811   0.1540   0.3309   0.4938   0.7414   1.2249   1.4217
     1.5929   1.8405   1.9595   2.5250   2.5823   2.7006   3.0338   3.3324
     3.6642

          k =-0.0007 0.3963 0.3963 ( 16164 PWs)   bands (ev):

   -44.4324 -27.7085 -27.7081 -27.7078 -25.1419 -22.9535 -22.9535 -22.9144
   -17.3209 -17.3207 -17.2148 -17.1345 -17.1345 -13.5337 -13.2693 -13.1910
   -12.3128 -12.0617 -11.8757 -11.3629 -11.3397 -11.3325 -11.1706 -11.1639
   -11.1583 -11.0716 -11.0657 -11.0640  -9.0072  -8.1892  -8.0927  -2.4673
    -0.1773  -0.0762   0.2214   0.3729   0.4844   0.7154   1.0907   1.5031
     1.5792   1.7992   2.0799   2.5223   2.6783   2.6995   2.9604   3.2665
     3.4156

          k = 0.0000 0.3971-0.3971 ( 16164 PWs)   bands (ev):

   -44.4324 -27.7086 -27.7080 -27.7078 -25.1419 -22.9535 -22.9535 -22.9144
   -17.3210 -17.3207 -17.2148 -17.1345 -17.1345 -13.5114 -13.3172 -13.1734
   -12.2873 -12.0644 -11.8933 -11.3616 -11.3423 -11.3292 -11.1694 -11.1665
   -11.1562 -11.0715 -11.0656 -11.0645  -9.0070  -8.1892  -8.0927  -2.4687
    -0.1842  -0.0564   0.2130   0.4000   0.4830   0.6413   1.1648   1.5042
     1.6112   1.7619   1.9980   2.6130   2.6820   2.7362   2.9131   3.2052
     3.4519

          k = 0.1980 0.1980 0.1980 ( 16176 PWs)   bands (ev):

   -44.4324 -27.7091 -27.7077 -27.7077 -25.1421 -22.9535 -22.9535 -22.9143
   -17.3208 -17.3208 -17.2149 -17.1345 -17.1345 -13.5614 -13.1379 -13.1379
   -12.5278 -11.9766 -11.9766 -11.3699 -11.3312 -11.3312 -11.1706 -11.1706
   -11.1538 -11.0706 -11.0706 -11.0648  -8.9480  -8.1048  -8.1048  -2.4540
    -0.2700  -0.2700   0.3257   0.3855   0.3855   0.9762   1.0227   1.0227
     1.7273   2.1669   2.1669   2.3964   2.3964   2.6393   3.1109   3.5906
     3.5906

          k = 0.1978 0.1978 0.3963 ( 16145 PWs)   bands (ev):

   -44.4324 -27.7087 -27.7080 -27.7077 -25.1420 -22.9535 -22.9535 -22.9144
   -17.3209 -17.3208 -17.2148 -17.1345 -17.1345 -13.5676 -13.2213 -13.1374
   -12.4306 -11.9863 -11.9312 -11.3701 -11.3332 -11.3246 -11.1677 -11.1668
   -11.1563 -11.0705 -11.0689 -11.0630  -8.9892  -8.1588  -8.1046  -2.4476
    -0.2889  -0.1393   0.3370   0.3805   0.4361   0.8017   1.0137   1.2329
     1.6924   2.0606   2.1076   2.4512   2.5682   2.7131   3.0567   3.3083
     3.6009

          k = 0.1985 0.1985-0.3971 ( 16155 PWs)   bands (ev):

   -44.4324 -27.7088 -27.7080 -27.7077 -25.1420 -22.9535 -22.9535 -22.9144
   -17.3210 -17.3208 -17.2148 -17.1345 -17.1345 -13.5137 -13.3134 -13.1371
   -12.3429 -11.9868 -11.9822 -11.3672 -11.3350 -11.3243 -11.1698 -11.1677
   -11.1529 -11.0699 -11.0695 -11.0638  -8.9883  -8.1590  -8.1044  -2.4566
    -0.2859  -0.0862   0.3159   0.3574   0.4458   0.7069   1.0888   1.4475
     1.6104   1.8515   2.0560   2.4865   2.7364   2.7453   2.9609   3.1896
     3.6155

          k = 0.1984 0.1984-0.1987 ( 16135 PWs)   bands (ev):

   -44.4324 -27.7092 -27.7077 -27.7076 -25.1421 -22.9535 -22.9535 -22.9142
   -17.3209 -17.3208 -17.2148 -17.1345 -17.1345 -13.4666 -13.3120 -13.1374
   -12.3573 -12.0699 -11.9775 -11.3640 -11.3354 -11.3307 -11.1740 -11.1707
   -11.1499 -11.0716 -11.0689 -11.0667  -8.9467  -8.1051  -8.1045  -2.4693
    -0.2644  -0.1495   0.1571   0.3468   0.4802   0.7327   1.1635   1.5581
     1.5685   1.7080   2.0467   2.4672   2.6678   2.7241   3.0009   3.3018
     3.6147

          k = 0.1976 0.3961 0.3961 ( 16147 PWs)   bands (ev):

   -44.4324 -27.7084 -27.7081 -27.7079 -25.1419 -22.9535 -22.9535 -22.9145
   -17.3209 -17.3208 -17.2147 -17.1345 -17.1345 -13.5978 -13.2011 -13.1909
   -12.3769 -11.9746 -11.8824 -11.3729 -11.3275 -11.3271 -11.1665 -11.1620
   -11.1611 -11.0701 -11.0675 -11.0611  -9.0279  -8.1891  -8.1305  -2.4428
    -0.2092  -0.0995   0.3306   0.4026   0.4387   0.7966   0.9744   1.2447
     1.6985   2.0780   2.1470   2.5225   2.5321   2.7437   3.0392   3.3173
     3.4003

          k = 0.1984 0.3969-0.3973 ( 16149 PWs)   bands (ev):

   -44.4324 -27.7085 -27.7080 -27.7079 -25.1419 -22.9535 -22.9535 -22.9145
   -17.3210 -17.3208 -17.2147 -17.1345 -17.1345 -13.5639 -13.2785 -13.1770
   -12.3079 -11.9968 -11.8967 -11.3683 -11.3365 -11.3245 -11.1710 -11.1632
   -11.1565 -11.0703 -11.0672 -11.0617  -9.0271  -8.1891  -8.1305  -2.4536
    -0.1787  -0.0693   0.2884   0.4177   0.4550   0.6897   1.0530   1.3829
     1.6368   1.9718   2.0429   2.5815   2.6246   2.7196   2.9632   3.2437
     3.4454

          k = 0.1982 0.3967-0.1989 ( 16141 PWs)   bands (ev):

   -44.4324 -27.7088 -27.7080 -27.7076 -25.1420 -22.9535 -22.9535 -22.9144
   -17.3210 -17.3207 -17.2148 -17.1345 -17.1345 -13.4892 -13.3335 -13.1598
   -12.2890 -12.0691 -11.9298 -11.3627 -11.3408 -11.3269 -11.1739 -11.1657
   -11.1527 -11.0715 -11.0670 -11.0648  -8.9880  -8.1585  -8.1049  -2.4664
    -0.2006  -0.0834   0.1998   0.3592   0.4875   0.6571   1.1866   1.4918
     1.6101   1.7812   1.9647   2.5728   2.6941   2.7293   2.9296   3.2263
     3.5399

          k = 0.1991-0.3965-0.3965 ( 16131 PWs)   bands (ev):

   -44.4324 -27.7085 -27.7081 -27.7078 -25.1419 -22.9535 -22.9535 -22.9145
   -17.3209 -17.3208 -17.2147 -17.1345 -17.1345 -13.5544 -13.2841 -13.1906
   -12.2816 -12.0232 -11.8829 -11.3665 -11.3384 -11.3272 -11.1731 -11.1621
   -11.1567 -11.0706 -11.0666 -11.0621  -9.0269  -8.1888  -8.1308  -2.4593
    -0.1025  -0.0965   0.2413   0.3790   0.4798   0.7193   1.0464   1.4427
     1.6141   1.8761   2.0934   2.5037   2.6908   2.7108   2.9386   3.2647
     3.4165

          k = 0.3960 0.3960 0.3960 ( 16143 PWs)   bands (ev):

   -44.4324 -27.7082 -27.7081 -27.7081 -25.1418 -22.9536 -22.9536 -22.9146
   -17.3209 -17.3209 -17.2147 -17.1345 -17.1345 -13.6442 -13.1904 -13.1904
   -12.3703 -11.8935 -11.8935 -11.3800 -11.3196 -11.3196 -11.1685 -11.1590
   -11.1590 -11.0681 -11.0681 -11.0585  -9.0650  -8.1887  -8.1887  -2.4227
    -0.1314  -0.1314   0.3461   0.4260   0.4260   0.8910   0.8910   1.1396
     1.7565   2.2522   2.2522   2.4440   2.4440   2.8273   3.0649   3.3894
     3.3894

          k = 0.3967 0.3967-0.3974 ( 16140 PWs)   bands (ev):

   -44.4324 -27.7083 -27.7081 -27.7080 -25.1418 -22.9536 -22.9536 -22.9146
   -17.3209 -17.3209 -17.2146 -17.1345 -17.1345 -13.6257 -13.2319 -13.1902
   -12.3242 -11.9116 -11.8938 -11.3768 -11.3262 -11.3194 -11.1722 -11.1590
   -11.1570 -11.0684 -11.0678 -11.0589  -9.0643  -8.1889  -8.1885  -2.4325
    -0.1301  -0.0963   0.3567   0.4105   0.4448   0.7934   0.9263   1.2500
     1.7210   2.1298   2.1733   2.5009   2.5770   2.7125   3.0191   3.2924
     3.4002

     highest occupied level (ev):     3.7165

!    total energy              =   -1450.93668814 Ry
     total all-electron energy =     -1450.936688 Ry
     estimated scf accuracy    <          9.5E-12 Ry

     The total energy is the sum of the following terms:
     one-electron contribution =    -477.32003498 Ry
     hartree contribution      =     296.74454786 Ry
     xc contribution           =    -119.13239393 Ry
     ewald contribution        =    -328.56247347 Ry
     one-center paw contrib.   =    -822.66633362 Ry

     convergence has been achieved in  46 iterations

     Forces acting on atoms (cartesian axes, Ry/au):

     atom    1 type  1   force =     0.01638332    0.01638332    0.01638332
     atom    2 type  1   force =     0.00189771    0.00189771   -0.00451944
     atom    3 type  1   force =     0.00189771   -0.00451944    0.00189771
     atom    4 type  1   force =    -0.00451944    0.00189771    0.00189771
     atom    5 type  2   force =     0.01844203    0.01844203    0.01844203
     atom    6 type  3   force =    -0.00846984   -0.00846984   -0.00846984
     atom    7 type  4   force =    -0.01242320    0.02816455    0.02816455
     atom    8 type  4   force =     0.02014081   -0.04483910   -0.04483910
     atom    9 type  4   force =     0.02816455   -0.01242320    0.02816455
     atom   10 type  4   force =    -0.04483910    0.02014081   -0.04483910
     atom   11 type  4   force =     0.02816455    0.02816455   -0.01242320
     atom   12 type  4   force =    -0.04483910   -0.04483910    0.02014081

     Total force =     0.143619     Total SCF correction =     0.000009


     Computing stress (Cartesian axis) and pressure

          total   stress  (Ry/bohr**3)                   (kbar)     P=       31.53
   0.00021431   0.00017229   0.00017229           31.53       25.34       25.34
   0.00017229   0.00021431   0.00017229           25.34       31.53       25.34
   0.00017229   0.00017229   0.00021431           25.34       25.34       31.53

     Energy error            =      5.5E-02 Ry
     Gradient error          =      4.5E-02 Ry/Bohr
     Cell gradient error     =      3.2E+01 kbar

     number of scf cycles    =   2
     number of bfgs steps    =   1

     enthalpy           old  =   -1450.8812449241 Ry
     enthalpy           new  =   -1450.9366881379 Ry

     CASE: enthalpy          _new < enthalpy          _old

     new trust radius        =       0.1325242811 bohr
     new conv_thr            =            1.0E-10 Ry

     new unit-cell volume =   2172.33404 a.u.^3 (   321.90669 Ang^3 )
     density =      2.38485 g/cm^3

CELL_PARAMETERS (angstrom)
   6.853931259   0.056874254   0.056874254
   0.056874254   6.853931259   0.056874254
   0.056874254   0.056874254   6.853931259

ATOMIC_POSITIONS (angstrom)
K            -0.0316127407       -0.0316127407       -0.0316127407
K             3.4287958333        3.4287958333        0.0706627347
K             3.4287958333        0.0706627347        3.4287958333
K             0.0706627347        3.4287958333        3.4287958333
Zr            1.4276197319        1.4276197319        1.4276197319
Sn            5.4043447467        5.4043447467        5.4043447467
O             2.4209180702        0.2740198523        0.2740198523
O             4.4415137890       -0.1180192014       -0.1180192014
O             0.2740198523        2.4209180702        0.2740198523
O            -0.1180192014        4.4415137890       -0.1180192014
O             0.2740198523        0.2740198523        2.4209180702
O            -0.1180192014       -0.1180192014        4.4415137890



     Writing config-only to output data dir ./K4ZrSnO6.save/
     NEW-OLD atomic charge density approx. for the potential
     extrapolated charge  100.83208, renormalised to   98.00000

     total cpu time spent up to now is      515.4 secs

     per-process dynamical memory:   119.0 Mb

     Self-consistent Calculation

     iteration #  1     ecut=    60.00 Ry     beta= 0.70
     Davidson diagonalization with overlap
     c_bands:  1 eigenvalues not converged
     c_bands:  1 eigenvalues not converged
     c_bands:  1 eigenvalues not converged
     c_bands:  1 eigenvalues not converged
     ethr =  1.00E-06,  avg # of iterations = 18.3

     total cpu time spent up to now is      528.2 secs

     total energy              =   -1448.37422235 Ry
     estimated scf accuracy    <       2.61813851 Ry

     iteration #  2     ecut=    60.00 Ry     beta= 0.70
     Davidson diagonalization with overlap
     ethr =  2.67E-03,  avg # of iterations =  6.0

     total cpu time spent up to now is      535.1 secs

     total energy              =   -1450.38340230 Ry
     estimated scf accuracy    <      13.26859525 Ry

     iteration #  3     ecut=    60.00 Ry     beta= 0.70
     Davidson diagonalization with overlap
     ethr =  2.67E-03,  avg # of iterations =  4.9

     total cpu time spent up to now is      540.6 secs

     total energy              =   -1451.15661483 Ry
     estimated scf accuracy    <       1.87980163 Ry

     iteration #  4     ecut=    60.00 Ry     beta= 0.70
     Davidson diagonalization with overlap
     ethr =  1.92E-03,  avg # of iterations =  3.4

     total cpu time spent up to now is      544.8 secs

     total energy              =   -1451.14689876 Ry
     estimated scf accuracy    <       0.95427720 Ry

     iteration #  5     ecut=    60.00 Ry     beta= 0.70
     Davidson diagonalization with overlap
     ethr =  9.74E-04,  avg # of iterations =  1.5

     total cpu time spent up to now is      548.4 secs

     total energy              =   -1451.05283320 Ry
     estimated scf accuracy    <       0.69428409 Ry

     iteration #  6     ecut=    60.00 Ry     beta= 0.70
     Davidson diagonalization with overlap
     ethr =  7.08E-04,  avg # of iterations =  2.1

     total cpu time spent up to now is      552.1 secs

     total energy              =   -1451.00341221 Ry
     estimated scf accuracy    <       0.40527444 Ry

     iteration #  7     ecut=    60.00 Ry     beta= 0.70
     Davidson diagonalization with overlap
     ethr =  4.14E-04,  avg # of iterations =  3.5

     total cpu time spent up to now is      556.1 secs

     total energy              =   -1451.00943414 Ry
     estimated scf accuracy    <       0.18018966 Ry

     iteration #  8     ecut=    60.00 Ry     beta= 0.70
     Davidson diagonalization with overlap
     ethr =  1.84E-04,  avg # of iterations =  2.1

     total cpu time spent up to now is      559.8 secs

     total energy              =   -1450.99286585 Ry
     estimated scf accuracy    <       0.14118883 Ry

     iteration #  9     ecut=    60.00 Ry     beta= 0.70
     Davidson diagonalization with overlap
     ethr =  1.44E-04,  avg # of iterations =  3.3

     total cpu time spent up to now is      563.9 secs

     total energy              =   -1450.99338148 Ry
     estimated scf accuracy    <       0.05865826 Ry

     iteration # 10     ecut=    60.00 Ry     beta= 0.70
     Davidson diagonalization with overlap
     ethr =  5.99E-05,  avg # of iterations =  3.1

     total cpu time spent up to now is      567.8 secs

     total energy              =   -1450.98244023 Ry
     estimated scf accuracy    <       0.03577407 Ry

     iteration # 11     ecut=    60.00 Ry     beta= 0.70
     Davidson diagonalization with overlap
     ethr =  3.65E-05,  avg # of iterations =  8.5

     total cpu time spent up to now is      574.1 secs

     total energy              =   -1451.00059785 Ry
     estimated scf accuracy    <       0.23938999 Ry

     iteration # 12     ecut=    60.00 Ry     beta= 0.70
     Davidson diagonalization with overlap
     ethr =  3.65E-05,  avg # of iterations =  1.0

     total cpu time spent up to now is      577.6 secs

     total energy              =   -1450.99567730 Ry
     estimated scf accuracy    <       0.23437513 Ry

     iteration # 13     ecut=    60.00 Ry     beta= 0.70
     Davidson diagonalization with overlap
     ethr =  3.65E-05,  avg # of iterations =  1.4

     total cpu time spent up to now is      581.2 secs

     total energy              =   -1450.99523868 Ry
     estimated scf accuracy    <       0.20714235 Ry

     iteration # 14     ecut=    60.00 Ry     beta= 0.70
     Davidson diagonalization with overlap
     ethr =  3.65E-05,  avg # of iterations =  1.0

     total cpu time spent up to now is      584.8 secs

     total energy              =   -1450.99841247 Ry
     estimated scf accuracy    <       0.19969040 Ry

     iteration # 15     ecut=    60.00 Ry     beta= 0.70
     Davidson diagonalization with overlap
     ethr =  3.65E-05,  avg # of iterations =  1.0

     total cpu time spent up to now is      588.3 secs

     total energy              =   -1451.00008211 Ry
     estimated scf accuracy    <       0.20828848 Ry

     iteration # 16     ecut=    60.00 Ry     beta= 0.70
     Davidson diagonalization with overlap
     ethr =  3.65E-05,  avg # of iterations =  1.0

     total cpu time spent up to now is      591.8 secs

     total energy              =   -1451.00194626 Ry
     estimated scf accuracy    <       0.21134671 Ry

     iteration # 17     ecut=    60.00 Ry     beta= 0.70
     Davidson diagonalization with overlap
     ethr =  3.65E-05,  avg # of iterations =  1.0

     total cpu time spent up to now is      595.3 secs

     total energy              =   -1451.00192555 Ry
     estimated scf accuracy    <       0.22129355 Ry

     iteration # 18     ecut=    60.00 Ry     beta= 0.70
     Davidson diagonalization with overlap
     ethr =  3.65E-05,  avg # of iterations =  1.0

     total cpu time spent up to now is      598.7 secs

     total energy              =   -1450.98652847 Ry
     estimated scf accuracy    <       0.22558091 Ry

     iteration # 19     ecut=    60.00 Ry     beta= 0.70
     Davidson diagonalization with overlap
     ethr =  3.65E-05,  avg # of iterations =  5.8

     total cpu time spent up to now is      603.8 secs

     total energy              =   -1450.98256456 Ry
     estimated scf accuracy    <       0.03467606 Ry

     iteration # 20     ecut=    60.00 Ry     beta= 0.70
     Davidson diagonalization with overlap
     ethr =  3.54E-05,  avg # of iterations =  5.7

     total cpu time spent up to now is      609.1 secs

     total energy              =   -1450.99063765 Ry
     estimated scf accuracy    <       0.01685827 Ry

     iteration # 21     ecut=    60.00 Ry     beta= 0.70
     Davidson diagonalization with overlap
     ethr =  1.72E-05,  avg # of iterations =  3.4

     total cpu time spent up to now is      613.1 secs

     total energy              =   -1450.99070319 Ry
     estimated scf accuracy    <       0.00438450 Ry

     iteration # 22     ecut=    60.00 Ry     beta= 0.70
     Davidson diagonalization with overlap
     ethr =  4.47E-06,  avg # of iterations =  5.5

     total cpu time spent up to now is      618.0 secs

     total energy              =   -1450.99125505 Ry
     estimated scf accuracy    <       0.00007453 Ry

     iteration # 23     ecut=    60.00 Ry     beta= 0.70
     Davidson diagonalization with overlap
     ethr =  7.61E-08,  avg # of iterations =  9.1

     total cpu time spent up to now is      625.1 secs

     total energy              =   -1450.99395893 Ry
     estimated scf accuracy    <       0.01011866 Ry

     iteration # 24     ecut=    60.00 Ry     beta= 0.70
     Davidson diagonalization with overlap
     ethr =  7.61E-08,  avg # of iterations =  1.0

     total cpu time spent up to now is      628.6 secs

     total energy              =   -1450.99373783 Ry
     estimated scf accuracy    <       0.01014708 Ry

     iteration # 25     ecut=    60.00 Ry     beta= 0.70
     Davidson diagonalization with overlap
     ethr =  7.61E-08,  avg # of iterations =  5.3

     total cpu time spent up to now is      633.4 secs

     total energy              =   -1450.99281725 Ry
     estimated scf accuracy    <       0.00855115 Ry

     iteration # 26     ecut=    60.00 Ry     beta= 0.70
     Davidson diagonalization with overlap
     ethr =  7.61E-08,  avg # of iterations =  6.7

     total cpu time spent up to now is      640.5 secs

     total energy              =   -1450.99304412 Ry
     estimated scf accuracy    <       0.00145751 Ry

     iteration # 27     ecut=    60.00 Ry     beta= 0.70
     Davidson diagonalization with overlap
     ethr =  7.61E-08,  avg # of iterations =  1.4

     total cpu time spent up to now is      644.0 secs

     total energy              =   -1450.99288503 Ry
     estimated scf accuracy    <       0.00149491 Ry

     iteration # 28     ecut=    60.00 Ry     beta= 0.70
     Davidson diagonalization with overlap
     ethr =  7.61E-08,  avg # of iterations =  6.6

     total cpu time spent up to now is      649.8 secs

     total energy              =   -1450.99293211 Ry
     estimated scf accuracy    <       0.00015468 Ry

     iteration # 29     ecut=    60.00 Ry     beta= 0.70
     Davidson diagonalization with overlap
     ethr =  7.61E-08,  avg # of iterations =  1.0

     total cpu time spent up to now is      653.3 secs

     total energy              =   -1450.99291482 Ry
     estimated scf accuracy    <       0.00015940 Ry

     iteration # 30     ecut=    60.00 Ry     beta= 0.70
     Davidson diagonalization with overlap
     ethr =  7.61E-08,  avg # of iterations =  5.8

     total cpu time spent up to now is      657.9 secs

     total energy              =   -1450.99291960 Ry
     estimated scf accuracy    <       0.00000985 Ry

     iteration # 31     ecut=    60.00 Ry     beta= 0.70
     Davidson diagonalization with overlap
     ethr =  1.01E-08,  avg # of iterations =  6.0

     total cpu time spent up to now is      662.7 secs

     total energy              =   -1450.99292051 Ry
     estimated scf accuracy    <       0.00000077 Ry

     iteration # 32     ecut=    60.00 Ry     beta= 0.70
     Davidson diagonalization with overlap
     ethr =  7.87E-10,  avg # of iterations =  6.7

     total cpu time spent up to now is      668.7 secs

     total energy              =   -1450.99292083 Ry
     estimated scf accuracy    <       0.00000137 Ry

     iteration # 33     ecut=    60.00 Ry     beta= 0.70
     Davidson diagonalization with overlap
     ethr =  7.87E-10,  avg # of iterations =  2.4

     total cpu time spent up to now is      672.5 secs

     total energy              =   -1450.99292072 Ry
     estimated scf accuracy    <       0.00000059 Ry

     iteration # 34     ecut=    60.00 Ry     beta= 0.70
     Davidson diagonalization with overlap
     ethr =  6.03E-10,  avg # of iterations =  6.1

     total cpu time spent up to now is      677.5 secs

     total energy              =   -1450.99292083 Ry
     estimated scf accuracy    <       0.00000087 Ry

     iteration # 35     ecut=    60.00 Ry     beta= 0.70
     Davidson diagonalization with overlap
     ethr =  6.03E-10,  avg # of iterations =  2.3

     total cpu time spent up to now is      681.3 secs

     total energy              =   -1450.99292083 Ry
     estimated scf accuracy    <       0.00000033 Ry

     iteration # 36     ecut=    60.00 Ry     beta= 0.70
     Davidson diagonalization with overlap
     ethr =  3.38E-10,  avg # of iterations =  4.9

     total cpu time spent up to now is      685.6 secs

     total energy              =   -1450.99292084 Ry
     estimated scf accuracy    <       0.00000007 Ry

     iteration # 37     ecut=    60.00 Ry     beta= 0.70
     Davidson diagonalization with overlap
     ethr =  6.66E-11,  avg # of iterations =  7.2

     total cpu time spent up to now is      690.6 secs

     total energy              =   -1450.99315207 Ry
     estimated scf accuracy    <       0.00100304 Ry

     iteration # 38     ecut=    60.00 Ry     beta= 0.70
     Davidson diagonalization with overlap
     ethr =  6.66E-11,  avg # of iterations =  1.7

     total cpu time spent up to now is      694.2 secs

     total energy              =   -1450.99315275 Ry
     estimated scf accuracy    <       0.00099764 Ry

     iteration # 39     ecut=    60.00 Ry     beta= 0.70
     Davidson diagonalization with overlap
     ethr =  6.66E-11,  avg # of iterations =  1.6

     total cpu time spent up to now is      697.8 secs

     total energy              =   -1450.99315262 Ry
     estimated scf accuracy    <       0.00100269 Ry

     iteration # 40     ecut=    60.00 Ry     beta= 0.70
     Davidson diagonalization with overlap
     ethr =  6.66E-11,  avg # of iterations =  1.0

     total cpu time spent up to now is      701.3 secs

     total energy              =   -1450.99315401 Ry
     estimated scf accuracy    <       0.00100245 Ry

     iteration # 41     ecut=    60.00 Ry     beta= 0.70
     Davidson diagonalization with overlap
     ethr =  6.66E-11,  avg # of iterations =  5.6

     total cpu time spent up to now is      705.9 secs

     total energy              =   -1450.99315439 Ry
     estimated scf accuracy    <       0.00102241 Ry

     iteration # 42     ecut=    60.00 Ry     beta= 0.70
     Davidson diagonalization with overlap
     ethr =  6.66E-11,  avg # of iterations =  1.0

     total cpu time spent up to now is      709.4 secs

     total energy              =   -1450.99315612 Ry
     estimated scf accuracy    <       0.00102416 Ry

     iteration # 43     ecut=    60.00 Ry     beta= 0.70
     Davidson diagonalization with overlap
     ethr =  6.66E-11,  avg # of iterations =  6.3

     total cpu time spent up to now is      714.3 secs

     total energy              =   -1450.99315587 Ry
     estimated scf accuracy    <       0.00105471 Ry

     iteration # 44     ecut=    60.00 Ry     beta= 0.70
     Davidson diagonalization with overlap
     ethr =  6.66E-11,  avg # of iterations =  1.0

     total cpu time spent up to now is      717.8 secs

     total energy              =   -1450.99315527 Ry
     estimated scf accuracy    <       0.00105359 Ry

     iteration # 45     ecut=    60.00 Ry     beta= 0.70
     Davidson diagonalization with overlap
     ethr =  6.66E-11,  avg # of iterations =  2.3

     total cpu time spent up to now is      721.6 secs

     total energy              =   -1450.99296081 Ry
     estimated scf accuracy    <       0.00104642 Ry

     iteration # 46     ecut=    60.00 Ry     beta= 0.70
     Davidson diagonalization with overlap
     c_bands:  1 eigenvalues not converged
     c_bands:  1 eigenvalues not converged
     c_bands:  1 eigenvalues not converged
     ethr =  6.66E-11,  avg # of iterations = 16.1

     total cpu time spent up to now is      735.0 secs

     total energy              =   -1450.99310794 Ry
     estimated scf accuracy    <       0.00013946 Ry

     iteration # 47     ecut=    60.00 Ry     beta= 0.70
     Davidson diagonalization with overlap
     c_bands:  1 eigenvalues not converged
     c_bands:  1 eigenvalues not converged
     c_bands:  1 eigenvalues not converged
     c_bands:  1 eigenvalues not converged
     c_bands:  1 eigenvalues not converged
     c_bands:  1 eigenvalues not converged
     ethr =  6.66E-11,  avg # of iterations = 15.8

     total cpu time spent up to now is      744.5 secs

     total energy              =   -1450.99309634 Ry
     estimated scf accuracy    <       0.00036931 Ry

     iteration # 48     ecut=    60.00 Ry     beta= 0.70
     Davidson diagonalization with overlap
     c_bands:  1 eigenvalues not converged
     c_bands:  1 eigenvalues not converged
     c_bands:  1 eigenvalues not converged
     c_bands:  1 eigenvalues not converged
     ethr =  6.66E-11,  avg # of iterations = 11.6

     total cpu time spent up to now is      752.5 secs

     total energy              =   -1450.99308892 Ry
     estimated scf accuracy    <       0.00020599 Ry

     iteration # 49     ecut=    60.00 Ry     beta= 0.70
     Davidson diagonalization with overlap
     c_bands:  1 eigenvalues not converged
     c_bands:  1 eigenvalues not converged
     c_bands:  1 eigenvalues not converged
     ethr =  6.66E-11,  avg # of iterations = 12.9

     total cpu time spent up to now is      760.6 secs

     total energy              =   -1450.99308334 Ry
     estimated scf accuracy    <       0.00010534 Ry

     iteration # 50     ecut=    60.00 Ry     beta= 0.70
     Davidson diagonalization with overlap
     c_bands:  1 eigenvalues not converged
     c_bands:  1 eigenvalues not converged
     c_bands:  1 eigenvalues not converged
     c_bands:  1 eigenvalues not converged
     ethr =  6.66E-11,  avg # of iterations = 15.0

     total cpu time spent up to now is      769.3 secs

     total energy              =   -1450.99307817 Ry
     estimated scf accuracy    <       0.00004021 Ry

     iteration # 51     ecut=    60.00 Ry     beta= 0.70
     Davidson diagonalization with overlap
     c_bands:  1 eigenvalues not converged
     c_bands:  1 eigenvalues not converged
     c_bands:  1 eigenvalues not converged
[...]
     ethr =  5.01E-03,  avg # of iterations =  6.2

     total cpu time spent up to now is    12234.0 secs

     total energy              =   -1446.47438971 Ry
     estimated scf accuracy    <      28.76635147 Ry

     iteration #  3     ecut=    60.00 Ry     beta= 0.70
     Davidson diagonalization with overlap
     ethr =  5.01E-03,  avg # of iterations =  4.7

     total cpu time spent up to now is    12239.4 secs

     total energy              =   -1451.36815437 Ry
     estimated scf accuracy    <       1.00248609 Ry

     iteration #  4     ecut=    60.00 Ry     beta= 0.70
     Davidson diagonalization with overlap
     ethr =  1.02E-03,  avg # of iterations =  6.6

     total cpu time spent up to now is    12244.4 secs

     total energy              =   -1451.82555638 Ry
     estimated scf accuracy    <       0.53737796 Ry

     iteration #  5     ecut=    60.00 Ry     beta= 0.70
     Davidson diagonalization with overlap
     ethr =  5.48E-04,  avg # of iterations =  1.7

     total cpu time spent up to now is    12247.9 secs

     total energy              =   -1451.74653051 Ry
     estimated scf accuracy    <       0.32794521 Ry

     iteration #  6     ecut=    60.00 Ry     beta= 0.70
     Davidson diagonalization with overlap
     ethr =  3.35E-04,  avg # of iterations =  2.8

     total cpu time spent up to now is    12251.9 secs

     total energy              =   -1451.75465052 Ry
     estimated scf accuracy    <       0.04705757 Ry

     iteration #  7     ecut=    60.00 Ry     beta= 0.70
     Davidson diagonalization with overlap
     ethr =  4.80E-05,  avg # of iterations =  4.3

     total cpu time spent up to now is    12256.9 secs

     total energy              =   -1451.76789502 Ry
     estimated scf accuracy    <       0.03014433 Ry

     iteration #  8     ecut=    60.00 Ry     beta= 0.70
     Davidson diagonalization with overlap
     ethr =  3.08E-05,  avg # of iterations =  3.2

     total cpu time spent up to now is    12260.9 secs

     total energy              =   -1451.77049674 Ry
     estimated scf accuracy    <       0.00253340 Ry

     iteration #  9     ecut=    60.00 Ry     beta= 0.70
     Davidson diagonalization with overlap
     ethr =  2.59E-06,  avg # of iterations =  3.6

     total cpu time spent up to now is    12265.2 secs

     total energy              =   -1451.77059542 Ry
     estimated scf accuracy    <       0.00050566 Ry

     iteration # 10     ecut=    60.00 Ry     beta= 0.70
     Davidson diagonalization with overlap
     ethr =  5.16E-07,  avg # of iterations =  3.9

     total cpu time spent up to now is    12269.8 secs

     total energy              =   -1451.77070796 Ry
     estimated scf accuracy    <       0.00004246 Ry

     iteration # 11     ecut=    60.00 Ry     beta= 0.70
     Davidson diagonalization with overlap
     ethr =  4.33E-08,  avg # of iterations =  3.5

     total cpu time spent up to now is    12274.5 secs

     total energy              =   -1451.77071594 Ry
     estimated scf accuracy    <       0.00000527 Ry

     iteration # 12     ecut=    60.00 Ry     beta= 0.70
     Davidson diagonalization with overlap
     ethr =  5.38E-09,  avg # of iterations =  3.1

     total cpu time spent up to now is    12279.2 secs

     total energy              =   -1451.77071733 Ry
     estimated scf accuracy    <       0.00000042 Ry

     iteration # 13     ecut=    60.00 Ry     beta= 0.70
     Davidson diagonalization with overlap
     ethr =  4.31E-10,  avg # of iterations =  3.0

     total cpu time spent up to now is    12284.0 secs

     total energy              =   -1451.77071743 Ry
     estimated scf accuracy    <       0.00000001 Ry

     iteration # 14     ecut=    60.00 Ry     beta= 0.70
     Davidson diagonalization with overlap
     ethr =  1.21E-11,  avg # of iterations =  3.4

     total cpu time spent up to now is    12289.5 secs

     total energy              =   -1451.77071744 Ry
     estimated scf accuracy    <          3.3E-09 Ry

     iteration # 15     ecut=    60.00 Ry     beta= 0.70
     Davidson diagonalization with overlap
     ethr =  3.34E-12,  avg # of iterations =  3.0

     total cpu time spent up to now is    12293.8 secs

     total energy              =   -1451.77071744 Ry
     estimated scf accuracy    <          6.8E-10 Ry

     iteration # 16     ecut=    60.00 Ry     beta= 0.70
     Davidson diagonalization with overlap
     ethr =  6.94E-13,  avg # of iterations =  3.0

     total cpu time spent up to now is    12298.2 secs

     total energy              =   -1451.77071744 Ry
     estimated scf accuracy    <          4.9E-11 Ry

     iteration # 17     ecut=    60.00 Ry     beta= 0.70
     Davidson diagonalization with overlap
     ethr =  1.00E-13,  avg # of iterations =  3.1

     total cpu time spent up to now is    12302.5 secs

     total energy              =   -1451.77071744 Ry
     estimated scf accuracy    <          9.9E-12 Ry

     iteration # 18     ecut=    60.00 Ry     beta= 0.70
     Davidson diagonalization with overlap
     ethr =  1.00E-13,  avg # of iterations =  1.0

     total cpu time spent up to now is    12305.9 secs

     total energy              =   -1451.77071744 Ry
     estimated scf accuracy    <          1.1E-12 Ry

     iteration # 19     ecut=    60.00 Ry     beta= 0.70
     Davidson diagonalization with overlap
     ethr =  1.00E-13,  avg # of iterations =  1.0

     total cpu time spent up to now is    12309.2 secs

     End of self-consistent calculation

          k = 0.0000 0.0000 0.0000 ( 14961 PWs)   bands (ev):

   -44.2440 -26.4906 -25.3275 -25.2482 -25.2482 -22.7937 -22.7001 -22.7001
   -16.7457 -16.7457 -16.6220 -16.3593 -16.3593 -12.5626 -12.2861 -12.2393
   -12.2393 -11.5768 -11.5768 -10.1541  -9.8499  -9.8499  -9.1228  -8.8933
    -8.8933  -8.8061  -8.7564  -8.7564  -8.6686  -8.5187  -8.5187  -1.8542
     0.7488   0.7668   0.7668   1.1554   1.1554   1.6085   1.6085   1.8354
     2.3493   2.3493   2.4401   2.6703   2.7719   2.7719   3.2531   3.2531
     3.4926

          k =-0.0201-0.0201 0.2074 ( 14971 PWs)   bands (ev):

   -44.2440 -26.4906 -25.3269 -25.2488 -25.2482 -22.7936 -22.7001 -22.7001
   -16.7459 -16.7455 -16.6220 -16.3596 -16.3592 -12.5658 -12.2952 -12.2371
   -12.2322 -11.5847 -11.5595 -10.1540  -9.8519  -9.8489  -9.2003  -8.9401
    -8.8816  -8.7870  -8.7463  -8.6987  -8.6321  -8.5281  -8.5172  -1.8301
     0.6986   0.7501   0.7953   1.1264   1.1602   1.5860   1.6014   1.8388
     2.3133   2.3697   2.4654   2.5889   2.7757   2.8561   3.1675   3.2500
     3.4667

          k =-0.0403-0.0403 0.4148 ( 14940 PWs)   bands (ev):

   -44.2440 -26.4906 -25.3259 -25.2498 -25.2482 -22.7936 -22.7002 -22.7001
   -16.7460 -16.7450 -16.6220 -16.3602 -16.3592 -12.5720 -12.3060 -12.2350
   -12.2203 -11.5979 -11.5327 -10.1538  -9.8552  -9.8471  -9.2898  -8.9931
    -8.8741  -8.7419  -8.7400  -8.6683  -8.5859  -8.5211  -8.5129  -1.7897
     0.6245   0.7186   0.8436   1.0762   1.1736   1.5397   1.5951   1.8358
     2.2844   2.4100   2.4780   2.5152   2.7816   2.9219   3.0712   3.2426
     3.4292

          k =-0.0403 0.1873 0.1873 ( 14945 PWs)   bands (ev):

   -44.2440 -26.4906 -25.3267 -25.2487 -25.2485 -22.7937 -22.7001 -22.7001
   -16.7458 -16.7454 -16.6220 -16.3598 -16.3594 -12.5700 -12.3051 -12.2342
   -12.2304 -11.5769 -11.5567 -10.1544  -9.8504  -9.8498  -9.1961  -8.9402
    -8.8842  -8.7619  -8.7561  -8.6884  -8.6358  -8.5461  -8.5217  -1.8153
     0.6604   0.7769   0.7933   1.1344   1.1361   1.5756   1.6127   1.8200
     2.3280   2.3446   2.4760   2.5307   2.8223   2.8487   3.1939   3.2122
     3.4512

          k =-0.0604 0.1671 0.3947 ( 14937 PWs)   bands (ev):

   -44.2440 -26.4906 -25.3258 -25.2496 -25.2485 -22.7936 -22.7002 -22.7001
   -16.7458 -16.7450 -16.6220 -16.3603 -16.3595 -12.5762 -12.3174 -12.2315
   -12.2208 -11.5850 -11.5328 -10.1545  -9.8533  -9.8482  -9.2674  -8.9812
    -8.9043  -8.7308  -8.7050  -8.6658  -8.6067  -8.5477  -8.5182  -1.7791
     0.5908   0.7541   0.8383   1.0853   1.1514   1.5409   1.6039   1.8144
     2.2925   2.3801   2.4494   2.4972   2.8230   2.9240   3.1104   3.2091
     3.4152

          k = 0.0201 0.2477-0.4350 ( 14929 PWs)   bands (ev):

   -44.2440 -26.4906 -25.3254 -25.2500 -25.2484 -22.7936 -22.7003 -22.7001
   -16.7458 -16.7450 -16.6220 -16.3603 -16.3595 -12.5754 -12.3162 -12.2308
   -12.2188 -11.5868 -11.5309 -10.1542  -9.8550  -9.8479  -9.3055  -9.0066
    -8.9138  -8.7456  -8.6798  -8.6473  -8.5840  -8.5283  -8.5146  -1.7719
     0.5885   0.7402   0.8389   1.0663   1.1632   1.5306   1.5890   1.8243
     2.2862   2.3765   2.4671   2.5003   2.8215   2.9611   3.0565   3.2107
     3.4063

          k = 0.0000 0.2276-0.2276 ( 14955 PWs)   bands (ev):

   -44.2440 -26.4906 -25.3261 -25.2494 -25.2483 -22.7936 -22.7002 -22.7001
   -16.7457 -16.7454 -16.6220 -16.3598 -16.3594 -12.5685 -12.3038 -12.2327
   -12.2271 -11.5806 -11.5528 -10.1538  -9.8536  -9.8487  -9.2723  -8.9800
    -8.9050  -8.7793  -8.6998  -8.6557  -8.5996  -8.5233  -8.5136  -1.8040
     0.6539   0.7479   0.8019   1.0993   1.1589   1.5676   1.5806   1.8444
     2.2993   2.3676   2.4890   2.5277   2.8072   2.9244   3.0875   3.2268
     3.4367

          k =-0.0806 0.3745 0.3745 ( 14896 PWs)   bands (ev):

   -44.2440 -26.4906 -25.3253 -25.2496 -25.2489 -22.7936 -22.7002 -22.7001
   -16.7457 -16.7448 -16.6219 -16.3606 -16.3597 -12.5828 -12.3326 -12.2262
   -12.2182 -11.5761 -11.5226 -10.1553  -9.8518  -9.8496  -9.2793  -8.9961
    -8.8803  -8.7694  -8.6751  -8.6276  -8.6264  -8.5540  -8.5172  -1.7540
     0.5296   0.7968   0.8347   1.1039   1.1077   1.5296   1.6059   1.7962
     2.2874   2.3632   2.3720   2.5176   2.8375   2.9921   3.1119   3.1536
     3.3897

          k = 0.0000 0.4551-0.4551 ( 14920 PWs)   bands (ev):

   -44.2440 -26.4906 -25.3251 -25.2499 -25.2488 -22.7936 -22.7003 -22.7001
   -16.7457 -16.7448 -16.6220 -16.3606 -16.3597 -12.5824 -12.3318 -12.2260
   -12.2167 -11.5777 -11.5210 -10.1551  -9.8533  -9.8489  -9.2993  -9.0093
    -8.9155  -8.7433  -8.6487  -8.6425  -8.5984  -8.5519  -8.5156  -1.7495
     0.5289   0.7832   0.8395   1.0706   1.1374   1.5218   1.5977   1.7995
     2.2827   2.3409   2.4093   2.5161   2.8368   3.0352   3.0473   3.1680
     3.3836

          k = 0.1671 0.1671 0.1671 ( 14980 PWs)   bands (ev):

   -44.2440 -26.4906 -25.3269 -25.2485 -25.2485 -22.7937 -22.7001 -22.7001
   -16.7455 -16.7455 -16.6220 -16.3598 -16.3598 -12.5769 -12.3144 -12.2313
   -12.2313 -11.5620 -11.5620 -10.1551  -9.8489  -9.8489  -9.1122  -8.8940
    -8.8940  -8.7639  -8.7639  -8.7286  -8.6669  -8.5541  -8.5541  -1.8059
     0.6192   0.8067   0.8067   1.1324   1.1324   1.6081   1.6081   1.7715
     2.3453   2.3453   2.4550   2.4891   2.8416   2.8416   3.2233   3.2233
     3.4458

          k = 0.1470 0.1470 0.3745 ( 14929 PWs)   bands (ev):

   -44.2440 -26.4906 -25.3261 -25.2492 -25.2485 -22.7937 -22.7002 -22.7001
   -16.7456 -16.7450 -16.6220 -16.3603 -16.3598 -12.5842 -12.3266 -12.2300
   -12.2210 -11.5741 -11.5336 -10.1553  -9.8513  -9.8473  -9.1911  -8.9415
    -8.8797  -8.7510  -8.7328  -8.6788  -8.6298  -8.5692  -8.5552  -1.7708
     0.5441   0.7853   0.8568   1.0971   1.1414   1.5678   1.6025   1.7685
     2.3109   2.3727   2.4151   2.4730   2.8486   2.9183   3.1452   3.2148
     3.4119

          k = 0.2276 0.2276-0.4551 ( 14918 PWs)   bands (ev):

   -44.2440 -26.4906 -25.3254 -25.2499 -25.2485 -22.7936 -22.7003 -22.7001
   -16.7456 -16.7450 -16.6220 -16.3604 -16.3598 -12.5818 -12.3253 -12.2285
   -12.2176 -11.5763 -11.5303 -10.1547  -9.8543  -9.8471  -9.2847  -8.9941
    -8.8759  -8.7478  -8.7391  -8.6276  -8.5926  -8.5415  -8.5231  -1.7587
     0.5405   0.7608   0.8550   1.0740   1.1518   1.5455   1.5752   1.7991
     2.3057   2.3383   2.4509   2.4909   2.8602   2.9622   3.0654   3.1987
     3.3952

          k = 0.2074 0.2074-0.2477 ( 14928 PWs)   bands (ev):

   -44.2440 -26.4906 -25.3258 -25.2496 -25.2485 -22.7936 -22.7002 -22.7001
   -16.7455 -16.7455 -16.6220 -16.3598 -16.3598 -12.5725 -12.3133 -12.2286
   -12.2259 -11.5654 -11.5564 -10.1541  -9.8537  -9.8487  -9.2871  -8.9939
    -8.8789  -8.7635  -8.7495  -8.6157  -8.5989  -8.5341  -8.5056  -1.7868
     0.6135   0.7659   0.8052   1.0968   1.1438   1.5582   1.5786   1.8323
     2.3170   2.3338   2.4795   2.5016   2.8604   2.9316   3.0789   3.1979
     3.4176

          k = 0.1268 0.3544 0.3544 ( 14932 PWs)   bands (ev):

   -44.2440 -26.4906 -25.3258 -25.2490 -25.2489 -22.7937 -22.7002 -22.7002
   -16.7455 -16.7449 -16.6219 -16.3606 -16.3601 -12.5929 -12.3401 -12.2247
   -12.2187 -11.5624 -11.5270 -10.1559  -9.8488  -9.8488  -9.1862  -8.9416
    -8.8842  -8.7754  -8.7085  -8.6401  -8.6376  -8.5902  -8.5651  -1.7439
     0.4742   0.8254   0.8619   1.1033   1.1179   1.5509   1.6050   1.7421
     2.3021   2.3322   2.3771   2.4888   2.8847   2.9746   3.1374   3.1688
     3.3866

          k = 0.2074 0.4350-0.4753 ( 14931 PWs)   bands (ev):

   -44.2440 -26.4906 -25.3252 -25.2497 -25.2488 -22.7937 -22.7003 -22.7001
   -16.7455 -16.7449 -16.6219 -16.3606 -16.3601 -12.5904 -12.3398 -12.2233
   -12.2167 -11.5618 -11.5258 -10.1555  -9.8520  -9.8480  -9.2615  -8.9831
    -8.9049  -8.7430  -8.7016  -8.6272  -8.5957  -8.5787  -8.5307  -1.7360
     0.4758   0.8093   0.8556   1.0816   1.1292   1.5332   1.5846   1.7697
     2.2703   2.3330   2.3996   2.5038   2.9035   3.0199   3.0641   3.1491
     3.3730

          k = 0.1873 0.4148-0.2678 ( 14903 PWs)   bands (ev):

   -44.2440 -26.4906 -25.3252 -25.2499 -25.2486 -22.7936 -22.7003 -22.7001
   -16.7456 -16.7450 -16.6219 -16.3603 -16.3598 -12.5796 -12.3268 -12.2259
   -12.2196 -11.5685 -11.5360 -10.1547  -9.8538  -9.8486  -9.3019  -9.0081
    -8.9151  -8.7333  -8.7067  -8.6125  -8.5927  -8.5475  -8.5075  -1.7581
     0.5505   0.7769   0.8290   1.0726   1.1427   1.5292   1.5872   1.8090
     2.2824   2.3535   2.4214   2.5106   2.8988   2.9596   3.0718   3.1622
     3.3886

          k = 0.2880-0.3947-0.3947 ( 14921 PWs)   bands (ev):

   -44.2440 -26.4906 -25.3251 -25.2497 -25.2489 -22.7937 -22.7003 -22.7002
   -16.7455 -16.7449 -16.6219 -16.3606 -16.3601 -12.5892 -12.3405 -12.2214
   -12.2181 -11.5574 -11.5291 -10.1555  -9.8521  -9.8486  -9.2786  -8.9960
    -8.8793  -8.7676  -8.7048  -8.6243  -8.6002  -8.5577  -8.5172  -1.7356
     0.4796   0.8256   0.8339   1.0959   1.1095   1.5300   1.5845   1.7781
     2.2569   2.3624   2.3652   2.5155   2.9253   3.0105   3.0947   3.1020
     3.3702

          k = 0.3342 0.3342 0.3342 ( 14947 PWs)   bands (ev):

   -44.2440 -26.4906 -25.3259 -25.2489 -25.2489 -22.7938 -22.7002 -22.7002
   -16.7451 -16.7451 -16.6220 -16.3606 -16.3606 -12.6055 -12.3516 -12.2189
   -12.2189 -11.5362 -11.5362 -10.1565  -9.8473  -9.8473  -9.1019  -8.8943
    -8.8943  -8.7817  -8.7817  -8.6642  -8.6076  -8.6076  -8.5979  -1.7183
     0.3943   0.8750   0.8750   1.1090   1.1090   1.5813   1.5813   1.6788
     2.2449   2.3582   2.3582   2.4823   2.9775   2.9775   3.1385   3.1385
     3.3679

          k = 0.4148 0.4148-0.4954 ( 14922 PWs)   bands (ev):

   -44.2440 -26.4906 -25.3254 -25.2493 -25.2489 -22.7938 -22.7002 -22.7002
   -16.7450 -16.7450 -16.6219 -16.3606 -16.3606 -12.6034 -12.3515 -12.2186
   -12.2168 -11.5376 -11.5333 -10.1563  -9.8493  -9.8471  -9.1847  -8.9422
    -8.8817  -8.7704  -8.7448  -8.6348  -8.6108  -8.5993  -8.5604  -1.7130
     0.3953   0.8575   0.8748   1.0988   1.1142   1.5550   1.5669   1.7150
     2.2242   2.3564   2.3747   2.4934   2.9980   3.0117   3.0803   3.1141
     3.3581

     highest occupied level (ev):     3.4926

!    total energy              =   -1451.77071744 Ry
     total all-electron energy =     -1451.770717 Ry
     estimated scf accuracy    <          1.1E-13 Ry

     The total energy is the sum of the following terms:
     one-electron contribution =    -427.04236598 Ry
     hartree contribution      =     274.99051950 Ry
     xc contribution           =    -119.65132533 Ry
     ewald contribution        =    -357.23408773 Ry
     one-center paw contrib.   =    -822.83345790 Ry

     convergence has been achieved in  19 iterations

     Forces acting on atoms (cartesian axes, Ry/au):

     atom    1 type  1   force =     0.00000003    0.00000003    0.00000003
     atom    2 type  1   force =     0.00000147    0.00000147    0.00000207
     atom    3 type  1   force =     0.00000147    0.00000207    0.00000147
     atom    4 type  1   force =     0.00000207    0.00000147    0.00000147
     atom    5 type  2   force =     0.00001516    0.00001516    0.00001516
     atom    6 type  3   force =     0.00000313    0.00000313    0.00000313
     atom    7 type  4   force =    -0.00003868    0.00003953    0.00003953
     atom    8 type  4   force =    -0.00003681   -0.00001345   -0.00001345
     atom    9 type  4   force =     0.00003953   -0.00003868    0.00003953
     atom   10 type  4   force =    -0.00001345   -0.00003681   -0.00001345
     atom   11 type  4   force =     0.00003953    0.00003953   -0.00003868
     atom   12 type  4   force =    -0.00001345   -0.00001345   -0.00003681

     Total force =     0.000141     Total SCF correction =     0.000001


     Computing stress (Cartesian axis) and pressure

          total   stress  (Ry/bohr**3)                   (kbar)     P=       -0.89
  -0.00000606   0.00000240   0.00000240           -0.89        0.35        0.35
   0.00000240  -0.00000606   0.00000240            0.35       -0.89        0.35
   0.00000240   0.00000240  -0.00000606            0.35        0.35       -0.89


     Writing all to output data dir ./K4ZrSnO6.save/

     init_run     :     33.75s CPU     34.05s WALL (       2 calls)
     electrons    :   8321.14s CPU   8573.23s WALL (      77 calls)
     update_pot   :   1316.30s CPU   1319.76s WALL (      75 calls)
     forces       :    769.91s CPU    775.00s WALL (      77 calls)
     stress       :   1552.20s CPU   1563.66s WALL (      77 calls)

     Called by init_run:
     wfcinit      :      4.98s CPU      5.08s WALL (       2 calls)
     potinit      :      9.36s CPU      9.41s WALL (       2 calls)
     hinit0       :     18.71s CPU     18.77s WALL (       2 calls)

     Called by electrons:
     c_bands      :   5755.96s CPU   5865.74s WALL (    1730 calls)
     sum_band     :   1146.78s CPU   1219.79s WALL (    1730 calls)
     v_of_rho     :     75.77s CPU     78.21s WALL (    1803 calls)
     newd         :    486.11s CPU    537.80s WALL (    1803 calls)
     PAW_pot      :    937.26s CPU    945.20s WALL (    1878 calls)
     mix_rho      :     11.23s CPU     11.76s WALL (    1730 calls)

     Called by c_bands:
     init_us_2    :     80.55s CPU     83.06s WALL (   70129 calls)
     init_us_2:cp :     80.16s CPU     82.89s WALL (   70129 calls)
     cegterg      :   5484.99s CPU   5590.32s WALL (   32870 calls)

     Called by *egterg:
     cdiaghg      :   1385.41s CPU   1405.31s WALL (  160169 calls)
     h_psi        :   2711.26s CPU   2776.73s WALL (  161708 calls)
     s_psi        :    330.54s CPU    333.59s WALL (  161708 calls)
     g_psi        :     56.63s CPU     57.13s WALL (  128800 calls)

     Called by h_psi:
     h_psi:calbec :    356.14s CPU    368.93s WALL (  161708 calls)
     vloc_psi     :   2007.48s CPU   2057.06s WALL (  161708 calls)
     add_vuspsi   :    332.95s CPU    336.11s WALL (  161708 calls)

     General routines
     calbec       :    502.79s CPU    521.55s WALL (  203318 calls)
     fft          :     35.09s CPU     38.61s WALL (   25289 calls)
     ffts         :      1.98s CPU      2.12s WALL (    3533 calls)
     fftw         :   2083.03s CPU   2133.99s WALL (10550734 calls)
     interpolate  :      4.21s CPU      4.54s WALL (    1803 calls)

     Parallel routines

     PWSCF        :      3h21m CPU      3h25m WALL


   This run was terminated on:   3:21:59  30Nov2025            

=------------------------------------------------------------------------------=
   JOB DONE.
=------------------------------------------------------------------------------=
