
     Program PWSCF v.7.1 starts on  2Dec2025 at  2:30:53 

     This program is part of the open-source Quantum ESPRESSO suite
     for quantum simulation of materials; please cite
         "P. Giannozzi et al., J. Phys.:Condens. Matter 21 395502 (2009);
         "P. Giannozzi et al., J. Phys.:Condens. Matter 29 465901 (2017);
         "P. Giannozzi et al., J. Chem. Phys. 152 154105 (2020);
          URL http://www.quantum-espresso.org", 
     in publications or presentations arising from this work. More details at
     http://www.quantum-espresso.org/quote

     Parallel version (MPI & OpenMP), running on      16 processor cores
     Number of MPI processes:                16
     Threads/MPI process:                     1

     MPI processes distributed on     1 nodes
     49006 MiB available memory on the printing compute node when the environment starts

     Waiting for input...
     Reading input from standard input

     Current dimensions of program PWSCF are:
     Max number of different atomic species (ntypx) = 10
     Max number of k-points (npk) =  40000
     Max angular momentum in pseudopotentials (lmaxx) =  4
     Message from routine read_pp_mesh:
     mismatch in mesh size, discarding the one in header
     Message from routine read_pp_mesh:
     mismatch in mesh size, discarding the one in header
     Message from routine read_pp_mesh:
     mismatch in mesh size, discarding the one in header
     Message from routine setup:
     using ibrav=0 with symmetry is DISCOURAGED, use correct ibrav instead

     R & G space division:  proc/nbgrp/npool/nimage =      16
     Subspace diagonalization in iterative solution of the eigenvalue problem:
     a serial algorithm will be used


     Parallelization info
     --------------------
     sticks:   dense  smooth     PW     G-vecs:    dense   smooth      PW
     Min         133      67     18                 4641     1637     242
     Max         135      69     19                 4642     1638     247
     Sum        2145    1085    293                74269    26193    3911

     Using Slab Decomposition



     bravais-lattice index     =            0
     lattice parameter (alat)  =       7.4833  a.u.
     unit-cell volume          =     419.0657 (a.u.)^3
     number of atoms/cell      =            5
     number of atomic types    =            3
     number of electrons       =        40.00
     number of Kohn-Sham states=           20
     kinetic-energy cutoff     =      60.0000  Ry
     charge density cutoff     =     480.0000  Ry
     scf convergence threshold =      1.0E-10
     mixing beta               =       0.7000
     number of iterations used =            8  plain     mixing
     Exchange-correlation= SLA PW PBX PBC
                           (   1   4   3   4   0   0   0)

     celldm(1)=   7.483315  celldm(2)=   0.000000  celldm(3)=   0.000000
     celldm(4)=   0.000000  celldm(5)=   0.000000  celldm(6)=   0.000000

     crystal axes: (cart. coord. in units of alat)
               a(1) = (   1.000000   0.000000   0.000000 )  
               a(2) = (   0.000000   1.000000   0.000000 )  
               a(3) = (   0.000000   0.000000   1.000000 )  

     reciprocal axes: (cart. coord. in units 2 pi/alat)
               b(1) = (  1.000000  0.000000  0.000000 )  
               b(2) = (  0.000000  1.000000  0.000000 )  
               b(3) = (  0.000000  0.000000  1.000000 )  


     PseudoPot. # 1 for V  read from file:
     ./V.upf
     MD5 check sum: 7f2f11533c26bed1e4abef38184b9f47
     Pseudo is Projector augmented-wave + core cor, Zval = 13.0
     Generated using ATOMPAW code
     Shape of augmentation charge: BESSEL
     Using radial grid of 2342 points,  6 beta functions with: 
                l(1) =   0
                l(2) =   0
                l(3) =   1
                l(4) =   1
                l(5) =   2
                l(6) =   2
     Q(r) pseudized with 0 coefficients 


     PseudoPot. # 2 for K  read from file:
     ./K.upf
     MD5 check sum: 9356cfae17991a8ac93a0af773ad5d28
     Pseudo is Projector augmented-wave + core cor, Zval =  9.0
     Generated using ATOMPAW code
     Shape of augmentation charge: SINC**2
     Using radial grid of 2342 points,  5 beta functions with: 
                l(1) =   0
                l(2) =   0
                l(3) =   1
                l(4) =   1
                l(5) =   2
     Q(r) pseudized with 0 coefficients 


     PseudoPot. # 3 for O  read from file:
     ./O.upf
     MD5 check sum: 45fbb1c0d1f8837f1e386a2947d3aa26
     Pseudo is Projector augmented-wave + core cor, Zval =  6.0
     Generated using ATOMPAW code
     Shape of augmentation charge: SINC**2
     Using radial grid of 2342 points,  4 beta functions with: 
                l(1) =   0
                l(2) =   0
                l(3) =   1
                l(4) =   1
     Q(r) pseudized with 0 coefficients 


     atomic species   valence    mass     pseudopotential
        V             13.00    50.94150     V ( 1.00)
        K              9.00    39.09800     K ( 1.00)
        O              6.00    15.99900     O ( 1.00)

     48 Sym. Ops., with inversion, found



   Cartesian axes

     site n.     atom                  positions (alat units)
         1           K   tau(   1) = (   0.0000000   0.0000000   0.0000000  )
         2           V   tau(   2) = (   0.5000000   0.5000000   0.5000000  )
         3           O   tau(   3) = (   0.5000000   0.5000000   0.0000000  )
         4           O   tau(   4) = (   0.5000000   0.0000000   0.5000000  )
         5           O   tau(   5) = (   0.0000000   0.5000000   0.5000000  )

     number of k points=     4
                       cart. coord. in units 2pi/alat
        k(    1) = (   0.0000000   0.0000000   0.0000000), wk =   0.0740741
        k(    2) = (   0.0000000   0.0000000   0.3333333), wk =   0.4444444
        k(    3) = (   0.0000000   0.3333333   0.3333333), wk =   0.8888889
        k(    4) = (   0.3333333   0.3333333   0.3333333), wk =   0.5925926

     Dense  grid:    74269 G-vectors     FFT dimensions: (  54,  54,  54)

     Smooth grid:    26193 G-vectors     FFT dimensions: (  40,  40,  40)

     Estimated max dynamical RAM per process >      22.99 MB

     Estimated total dynamical RAM >     367.78 MB

     Check: negative core charge=   -0.000001

     Initial potential from superposition of free atoms

     starting charge      39.9793, renormalised to      40.0000
     Starting wfcs are   55 randomized atomic wfcs
     Checking if some PAW data can be deallocated... 

     total cpu time spent up to now is        1.9 secs

     per-process dynamical memory:    45.0 Mb

     Self-consistent Calculation

     iteration #  1     ecut=    60.00 Ry     beta= 0.70
     Davidson diagonalization with overlap
     ethr =  1.00E-02,  avg # of iterations =  1.0

     total cpu time spent up to now is        2.3 secs

     total energy              =    -450.34017190 Ry
     estimated scf accuracy    <       3.07111912 Ry

     iteration #  2     ecut=    60.00 Ry     beta= 0.70
     Davidson diagonalization with overlap
     ethr =  7.68E-03,  avg # of iterations =  4.5

     total cpu time spent up to now is        2.7 secs

     total energy              =    -447.94908893 Ry
     estimated scf accuracy    <      49.24584840 Ry

     iteration #  3     ecut=    60.00 Ry     beta= 0.70
     Davidson diagonalization with overlap
     ethr =  7.68E-03,  avg # of iterations =  4.8

     total cpu time spent up to now is        3.1 secs

     total energy              =    -451.14896291 Ry
     estimated scf accuracy    <       2.37446132 Ry

     iteration #  4     ecut=    60.00 Ry     beta= 0.70
     Davidson diagonalization with overlap
     ethr =  5.94E-03,  avg # of iterations =  1.0

     total cpu time spent up to now is        3.4 secs

     total energy              =    -450.92929968 Ry
     estimated scf accuracy    <       1.37786858 Ry

     iteration #  5     ecut=    60.00 Ry     beta= 0.70
     Davidson diagonalization with overlap
     ethr =  3.44E-03,  avg # of iterations =  3.5

     total cpu time spent up to now is        3.8 secs

     total energy              =    -451.83211837 Ry
     estimated scf accuracy    <       0.08128456 Ry

     iteration #  6     ecut=    60.00 Ry     beta= 0.70
     Davidson diagonalization with overlap
     ethr =  2.03E-04,  avg # of iterations =  3.5

     total cpu time spent up to now is        4.1 secs

     total energy              =    -451.91753195 Ry
     estimated scf accuracy    <       0.19776211 Ry

     iteration #  7     ecut=    60.00 Ry     beta= 0.70
     Davidson diagonalization with overlap
     ethr =  2.03E-04,  avg # of iterations =  1.5

     total cpu time spent up to now is        4.5 secs

     total energy              =    -451.90357853 Ry
     estimated scf accuracy    <       0.11130970 Ry

     iteration #  8     ecut=    60.00 Ry     beta= 0.70
     Davidson diagonalization with overlap
     ethr =  2.03E-04,  avg # of iterations =  2.0

     total cpu time spent up to now is        4.8 secs

     total energy              =    -451.90541324 Ry
     estimated scf accuracy    <       0.04898899 Ry

     iteration #  9     ecut=    60.00 Ry     beta= 0.70
     Davidson diagonalization with overlap
     ethr =  1.22E-04,  avg # of iterations =  2.2

     total cpu time spent up to now is        5.2 secs

     total energy              =    -452.26565341 Ry
     estimated scf accuracy    <       0.52987396 Ry

     iteration # 10     ecut=    60.00 Ry     beta= 0.70
     Davidson diagonalization with overlap
     ethr =  1.22E-04,  avg # of iterations =  1.0

     total cpu time spent up to now is        5.5 secs

     total energy              =    -452.19891010 Ry
     estimated scf accuracy    <       0.53551512 Ry

     iteration # 11     ecut=    60.00 Ry     beta= 0.70
     Davidson diagonalization with overlap
     ethr =  1.22E-04,  avg # of iterations =  3.0

     total cpu time spent up to now is        5.9 secs

     total energy              =    -452.22456605 Ry
     estimated scf accuracy    <       0.29241737 Ry

     iteration # 12     ecut=    60.00 Ry     beta= 0.70
     Davidson diagonalization with overlap
     ethr =  1.22E-04,  avg # of iterations =  1.0

     total cpu time spent up to now is        6.2 secs

     total energy              =    -452.21681943 Ry
     estimated scf accuracy    <       0.34791685 Ry

     iteration # 13     ecut=    60.00 Ry     beta= 0.70
     Davidson diagonalization with overlap
     ethr =  1.22E-04,  avg # of iterations =  1.0

     total cpu time spent up to now is        6.5 secs

     total energy              =    -452.26919374 Ry
     estimated scf accuracy    <       0.32733033 Ry

     iteration # 14     ecut=    60.00 Ry     beta= 0.70
     Davidson diagonalization with overlap
     ethr =  1.22E-04,  avg # of iterations =  3.0

     total cpu time spent up to now is        6.9 secs

     total energy              =    -452.26361187 Ry
     estimated scf accuracy    <       0.55199031 Ry

     iteration # 15     ecut=    60.00 Ry     beta= 0.70
     Davidson diagonalization with overlap
     ethr =  1.22E-04,  avg # of iterations =  1.0

     total cpu time spent up to now is        7.2 secs

     total energy              =    -452.31755331 Ry
     estimated scf accuracy    <       0.52186662 Ry

     iteration # 16     ecut=    60.00 Ry     beta= 0.70
     Davidson diagonalization with overlap
     ethr =  1.22E-04,  avg # of iterations =  2.2

     total cpu time spent up to now is        7.5 secs

     total energy              =    -452.42105951 Ry
     estimated scf accuracy    <       0.67879967 Ry

     iteration # 17     ecut=    60.00 Ry     beta= 0.70
     Davidson diagonalization with overlap
     ethr =  1.22E-04,  avg # of iterations =  7.0

     total cpu time spent up to now is        7.9 secs

     total energy              =    -451.88244447 Ry
     estimated scf accuracy    <       2.81128838 Ry

     iteration # 18     ecut=    60.00 Ry     beta= 0.70
     Davidson diagonalization with overlap
     ethr =  1.22E-04,  avg # of iterations =  4.2

     total cpu time spent up to now is        8.3 secs

     total energy              =    -452.32525942 Ry
     estimated scf accuracy    <       0.26672492 Ry

     iteration # 19     ecut=    60.00 Ry     beta= 0.70
     Davidson diagonalization with overlap
     ethr =  1.22E-04,  avg # of iterations =  3.2

     total cpu time spent up to now is        8.7 secs

     total energy              =    -452.30369341 Ry
     estimated scf accuracy    <       0.06661932 Ry

     iteration # 20     ecut=    60.00 Ry     beta= 0.70
     Davidson diagonalization with overlap
     ethr =  1.22E-04,  avg # of iterations =  3.8

     total cpu time spent up to now is        9.1 secs

     total energy              =    -452.31026454 Ry
     estimated scf accuracy    <       0.13562514 Ry

     iteration # 21     ecut=    60.00 Ry     beta= 0.70
     Davidson diagonalization with overlap
     ethr =  1.22E-04,  avg # of iterations =  3.2

     total cpu time spent up to now is        9.4 secs

     total energy              =    -452.32602756 Ry
     estimated scf accuracy    <       0.00228786 Ry

     iteration # 22     ecut=    60.00 Ry     beta= 0.70
     Davidson diagonalization with overlap
     ethr =  5.72E-06,  avg # of iterations =  2.5

     total cpu time spent up to now is        9.8 secs

     total energy              =    -452.32663919 Ry
     estimated scf accuracy    <       0.00244875 Ry

     iteration # 23     ecut=    60.00 Ry     beta= 0.70
     Davidson diagonalization with overlap
     ethr =  5.72E-06,  avg # of iterations =  3.8

     total cpu time spent up to now is       10.2 secs

     total energy              =    -452.39389362 Ry
     estimated scf accuracy    <       0.01528916 Ry

     iteration # 24     ecut=    60.00 Ry     beta= 0.70
     Davidson diagonalization with overlap
     ethr =  5.72E-06,  avg # of iterations =  6.2

     total cpu time spent up to now is       10.6 secs

     total energy              =    -452.59634696 Ry
     estimated scf accuracy    <       1.31648531 Ry

     iteration # 25     ecut=    60.00 Ry     beta= 0.70
     Davidson diagonalization with overlap
     ethr =  5.72E-06,  avg # of iterations =  3.5

     total cpu time spent up to now is       11.0 secs

     total energy              =    -452.18905139 Ry
     estimated scf accuracy    <       1.50555663 Ry

     iteration # 26     ecut=    60.00 Ry     beta= 0.70
     Davidson diagonalization with overlap
     ethr =  5.72E-06,  avg # of iterations =  4.8

     total cpu time spent up to now is       11.4 secs

     total energy              =    -452.32896498 Ry
     estimated scf accuracy    <       0.01240876 Ry

     iteration # 27     ecut=    60.00 Ry     beta= 0.70
     Davidson diagonalization with overlap
     ethr =  5.72E-06,  avg # of iterations =  3.8

     total cpu time spent up to now is       11.8 secs

     total energy              =    -452.32259889 Ry
     estimated scf accuracy    <       0.03760142 Ry

     iteration # 28     ecut=    60.00 Ry     beta= 0.70
     Davidson diagonalization with overlap
     ethr =  5.72E-06,  avg # of iterations =  4.2

     total cpu time spent up to now is       12.1 secs

     total energy              =    -452.32825522 Ry
     estimated scf accuracy    <       0.00956373 Ry

     iteration # 29     ecut=    60.00 Ry     beta= 0.70
     Davidson diagonalization with overlap
     ethr =  5.72E-06,  avg # of iterations =  3.5

     total cpu time spent up to now is       12.5 secs

     total energy              =    -452.33001539 Ry
     estimated scf accuracy    <       0.00315973 Ry

     iteration # 30     ecut=    60.00 Ry     beta= 0.70
     Davidson diagonalization with overlap
     ethr =  5.72E-06,  avg # of iterations =  3.0

     total cpu time spent up to now is       12.9 secs

     total energy              =    -452.33026467 Ry
     estimated scf accuracy    <       0.00006274 Ry

     iteration # 31     ecut=    60.00 Ry     beta= 0.70
     Davidson diagonalization with overlap
     ethr =  1.57E-07,  avg # of iterations =  3.0

     total cpu time spent up to now is       13.2 secs

     total energy              =    -452.33022690 Ry
     estimated scf accuracy    <       0.00017788 Ry

     iteration # 32     ecut=    60.00 Ry     beta= 0.70
     Davidson diagonalization with overlap
     ethr =  1.57E-07,  avg # of iterations =  3.2

     total cpu time spent up to now is       13.6 secs

     total energy              =    -452.33025341 Ry
     estimated scf accuracy    <       0.00001400 Ry

     iteration # 33     ecut=    60.00 Ry     beta= 0.70
     Davidson diagonalization with overlap
     ethr =  3.50E-08,  avg # of iterations =  1.0

     total cpu time spent up to now is       13.9 secs

     total energy              =    -452.33025354 Ry
     estimated scf accuracy    <       0.00000714 Ry

     iteration # 34     ecut=    60.00 Ry     beta= 0.70
     Davidson diagonalization with overlap
     ethr =  1.79E-08,  avg # of iterations =  2.5

     total cpu time spent up to now is       14.3 secs

     total energy              =    -452.33025373 Ry
     estimated scf accuracy    <       0.00000151 Ry

     iteration # 35     ecut=    60.00 Ry     beta= 0.70
     Davidson diagonalization with overlap
     ethr =  3.77E-09,  avg # of iterations =  3.2

     total cpu time spent up to now is       14.6 secs

     total energy              =    -452.33025392 Ry
     estimated scf accuracy    <       0.00000004 Ry

     iteration # 36     ecut=    60.00 Ry     beta= 0.70
     Davidson diagonalization with overlap
     ethr =  9.26E-11,  avg # of iterations =  3.2

     total cpu time spent up to now is       15.0 secs

     total energy              =    -452.33025393 Ry
     estimated scf accuracy    <       0.00000006 Ry

     iteration # 37     ecut=    60.00 Ry     beta= 0.70
     Davidson diagonalization with overlap
     ethr =  9.26E-11,  avg # of iterations =  1.5

     total cpu time spent up to now is       15.3 secs

     total energy              =    -452.33025394 Ry
     estimated scf accuracy    <       0.00000008 Ry

     iteration # 38     ecut=    60.00 Ry     beta= 0.70
     Davidson diagonalization with overlap
     ethr =  9.26E-11,  avg # of iterations =  3.0

     total cpu time spent up to now is       15.7 secs

     total energy              =    -452.33025394 Ry
     estimated scf accuracy    <       0.00000008 Ry

     iteration # 39     ecut=    60.00 Ry     beta= 0.70
     Davidson diagonalization with overlap
     ethr =  9.26E-11,  avg # of iterations =  1.0

     total cpu time spent up to now is       16.0 secs

     total energy              =    -452.33025395 Ry
     estimated scf accuracy    <       0.00000009 Ry

     iteration # 40     ecut=    60.00 Ry     beta= 0.70
     Davidson diagonalization with overlap
     ethr =  9.26E-11,  avg # of iterations =  2.5

     total cpu time spent up to now is       16.4 secs

     total energy              =    -452.33025394 Ry
     estimated scf accuracy    <       0.00000022 Ry

     iteration # 41     ecut=    60.00 Ry     beta= 0.70
     Davidson diagonalization with overlap
     ethr =  9.26E-11,  avg # of iterations =  2.5

     total cpu time spent up to now is       16.7 secs

     total energy              =    -452.33025394 Ry
     estimated scf accuracy    <       0.00000009 Ry

     iteration # 42     ecut=    60.00 Ry     beta= 0.70
     Davidson diagonalization with overlap
     ethr =  9.26E-11,  avg # of iterations =  1.0

     total cpu time spent up to now is       17.0 secs

     total energy              =    -452.33025393 Ry
     estimated scf accuracy    <       0.00000009 Ry

     iteration # 43     ecut=    60.00 Ry     beta= 0.70
     Davidson diagonalization with overlap
     ethr =  9.26E-11,  avg # of iterations =  3.2

     total cpu time spent up to now is       17.4 secs

     total energy              =    -452.33025393 Ry
     estimated scf accuracy    <       0.00000027 Ry

     iteration # 44     ecut=    60.00 Ry     beta= 0.70
     Davidson diagonalization with overlap
     ethr =  9.26E-11,  avg # of iterations =  2.5

     total cpu time spent up to now is       17.7 secs

     total energy              =    -452.33025391 Ry
     estimated scf accuracy    <       0.00000009 Ry

     iteration # 45     ecut=    60.00 Ry     beta= 0.70
     Davidson diagonalization with overlap
     ethr =  9.26E-11,  avg # of iterations =  3.8

     total cpu time spent up to now is       18.1 secs

     total energy              =    -452.33025394 Ry
     estimated scf accuracy    <       0.00000047 Ry

     iteration # 46     ecut=    60.00 Ry     beta= 0.70
     Davidson diagonalization with overlap
     ethr =  9.26E-11,  avg # of iterations =  2.5

     total cpu time spent up to now is       18.5 secs

     total energy              =    -452.33025388 Ry
     estimated scf accuracy    <       0.00000024 Ry

     iteration # 47     ecut=    60.00 Ry     beta= 0.70
     Davidson diagonalization with overlap
     ethr =  9.26E-11,  avg # of iterations =  3.5

     total cpu time spent up to now is       18.9 secs

     total energy              =    -452.33025391 Ry
     estimated scf accuracy    <       0.00000005 Ry

     iteration # 48     ecut=    60.00 Ry     beta= 0.70
     Davidson diagonalization with overlap
     ethr =  9.26E-11,  avg # of iterations =  2.5

     total cpu time spent up to now is       19.2 secs

     total energy              =    -452.33025392 Ry
     estimated scf accuracy    <          4.3E-09 Ry

     iteration # 49     ecut=    60.00 Ry     beta= 0.70
     Davidson diagonalization with overlap
     ethr =  1.08E-11,  avg # of iterations =  3.2

     total cpu time spent up to now is       19.6 secs

     total energy              =    -452.33025392 Ry
     estimated scf accuracy    <          8.9E-10 Ry

     iteration # 50     ecut=    60.00 Ry     beta= 0.70
     Davidson diagonalization with overlap
     ethr =  2.22E-12,  avg # of iterations =  3.5

     total cpu time spent up to now is       19.9 secs

     total energy              =    -452.33025392 Ry
     estimated scf accuracy    <          2.5E-09 Ry

     iteration # 51     ecut=    60.00 Ry     beta= 0.70
     Davidson diagonalization with overlap
     ethr =  2.22E-12,  avg # of iterations =  2.5

     total cpu time spent up to now is       20.3 secs

     End of self-consistent calculation

          k = 0.0000 0.0000 0.0000 (  3287 PWs)   bands (ev):

   -58.6000 -32.3141 -32.3141 -32.3141 -20.0127 -10.2682  -9.2828  -9.2828
    -3.5576  -3.5576  -3.5576   4.0538   4.0538   4.0538   6.1766   6.1766
     6.1766   6.6186   6.6186   6.6186

          k = 0.0000 0.0000 0.3333 (  3258 PWs)   bands (ev):

   -58.5997 -32.3278 -32.3135 -32.3135 -19.9931 -10.1237  -9.2653  -9.2293
    -3.5152  -3.5152  -3.4323   2.6935   4.1296   4.1296   4.9766   4.9766
     5.3029   5.8459   6.3688   6.3688

          k = 0.0000 0.3333 0.3333 (  3289 PWs)   bands (ev):

   -58.5993 -32.3272 -32.3272 -32.3130 -19.9775  -9.8473  -9.2587  -9.2266
    -3.5471  -3.4735  -3.4696   2.6186   2.7778   3.4843   4.2206   4.7063
     5.2552   5.6644   5.8305   6.7994

          k = 0.3333 0.3333 0.3333 (  3295 PWs)   bands (ev):

   -58.5990 -32.3266 -32.3266 -32.3266 -19.9640  -9.5291  -9.2040  -9.2040
    -3.6790  -3.6790  -3.5248   2.6060   2.7985   2.7985   3.6110   3.8487
     3.8487   6.6807   6.6807   6.8938

     highest occupied level (ev):     6.8938

!    total energy              =    -452.33025392 Ry
     total all-electron energy =      -452.330254 Ry
     estimated scf accuracy    <          5.0E-11 Ry

     The total energy is the sum of the following terms:
     one-electron contribution =    -111.84305937 Ry
     hartree contribution      =      73.97445903 Ry
     xc contribution           =     -46.37035709 Ry
     ewald contribution        =    -208.84639570 Ry
     one-center paw contrib.   =    -159.24490079 Ry

     convergence has been achieved in  51 iterations

     Forces acting on atoms (cartesian axes, Ry/au):

     atom    1 type  2   force =     0.00000000    0.00000000    0.00000000
     atom    2 type  1   force =     0.00000000    0.00000000    0.00000000
     atom    3 type  3   force =     0.00000000    0.00000000    0.00000000
     atom    4 type  3   force =     0.00000000    0.00000000    0.00000000
     atom    5 type  3   force =     0.00000000    0.00000000    0.00000000

     Total force =     0.000000     Total SCF correction =     0.000000


     Computing stress (Cartesian axis) and pressure

          total   stress  (Ry/bohr**3)                   (kbar)     P=     -130.04
  -0.00088402   0.00000000   0.00000000         -130.04        0.00        0.00
   0.00000000  -0.00088402   0.00000000            0.00     -130.04        0.00
   0.00000000   0.00000000  -0.00088402            0.00        0.00     -130.04


     Writing all to output data dir ./KVO3.save/

     init_run     :      1.07s CPU      1.11s WALL (       1 calls)
     electrons    :     17.88s CPU     18.38s WALL (       1 calls)
     forces       :      0.21s CPU      0.21s WALL (       1 calls)
     stress       :      0.52s CPU      0.52s WALL (       1 calls)

     Called by init_run:
     wfcinit      :      0.06s CPU      0.06s WALL (       1 calls)
     potinit      :      0.45s CPU      0.47s WALL (       1 calls)
     hinit0       :      0.50s CPU      0.51s WALL (       1 calls)

     Called by electrons:
     c_bands      :      3.75s CPU      3.91s WALL (      51 calls)
     sum_band     :      1.94s CPU      1.99s WALL (      51 calls)
     v_of_rho     :      0.49s CPU      0.51s WALL (      52 calls)
     newd         :      1.03s CPU      1.05s WALL (      52 calls)
     PAW_pot      :     10.74s CPU     10.95s WALL (      52 calls)
     mix_rho      :      0.09s CPU      0.10s WALL (      51 calls)

     Called by c_bands:
     init_us_2    :      0.06s CPU      0.06s WALL (     420 calls)
     init_us_2:cp :      0.06s CPU      0.06s WALL (     420 calls)
     cegterg      :      3.60s CPU      3.74s WALL (     204 calls)

     Called by *egterg:
     cdiaghg      :      1.22s CPU      1.25s WALL (     796 calls)
     h_psi        :      1.96s CPU      2.05s WALL (     800 calls)
     s_psi        :      0.10s CPU      0.10s WALL (     800 calls)
     g_psi        :      0.03s CPU      0.03s WALL (     592 calls)

     Called by h_psi:
     h_psi:calbec :      0.13s CPU      0.14s WALL (     800 calls)
     vloc_psi     :      1.72s CPU      1.80s WALL (     800 calls)
     add_vuspsi   :      0.10s CPU      0.11s WALL (     800 calls)

     General routines
     calbec       :      0.18s CPU      0.19s WALL (    1024 calls)
     fft          :      0.38s CPU      0.40s WALL (     699 calls)
     ffts         :      0.18s CPU      0.18s WALL (     103 calls)
     fftw         :      1.83s CPU      1.92s WALL (   25186 calls)
     interpolate  :      0.20s CPU      0.20s WALL (      52 calls)

     Parallel routines

     PWSCF        :     20.41s CPU     21.24s WALL


   This run was terminated on:   2:31:14   2Dec2025            

=------------------------------------------------------------------------------=
   JOB DONE.
=------------------------------------------------------------------------------=
