
     Program PWSCF v.7.1 starts on  1Dec2025 at  2: 6:22 

     This program is part of the open-source Quantum ESPRESSO suite
     for quantum simulation of materials; please cite
         "P. Giannozzi et al., J. Phys.:Condens. Matter 21 395502 (2009);
         "P. Giannozzi et al., J. Phys.:Condens. Matter 29 465901 (2017);
         "P. Giannozzi et al., J. Chem. Phys. 152 154105 (2020);
          URL http://www.quantum-espresso.org", 
     in publications or presentations arising from this work. More details at
     http://www.quantum-espresso.org/quote

     Parallel version (MPI & OpenMP), running on      16 processor cores
     Number of MPI processes:                16
     Threads/MPI process:                     1

     MPI processes distributed on     1 nodes
     34687 MiB available memory on the printing compute node when the environment starts

     Waiting for input...
     Reading input from standard input

     Current dimensions of program PWSCF are:
     Max number of different atomic species (ntypx) = 10
     Max number of k-points (npk) =  40000
     Max angular momentum in pseudopotentials (lmaxx) =  4
     Message from routine read_pp_mesh:
     mismatch in mesh size, discarding the one in header
     Message from routine read_pp_mesh:
     mismatch in mesh size, discarding the one in header
     Message from routine read_pp_mesh:
     mismatch in mesh size, discarding the one in header
     Message from routine read_pp_mesh:
     mismatch in mesh size, discarding the one in header
     Message from routine read_pp_mesh:
     mismatch in mesh size, discarding the one in header
     Message from routine setup:
     using ibrav=0 with symmetry is DISCOURAGED, use correct ibrav instead

     R & G space division:  proc/nbgrp/npool/nimage =      16
     Subspace diagonalization in iterative solution of the eigenvalue problem:
     a serial algorithm will be used


     Parallelization info
     --------------------
     sticks:   dense  smooth     PW     G-vecs:    dense   smooth      PW
     Min         302     151     41                15818     5573     813
     Max         304     152     43                15821     5577     816
     Sum        4849    2417    673               253119    89199   13037

     Using Slab Decomposition



     bravais-lattice index     =            0
     lattice parameter (alat)  =      11.2511  a.u.
     unit-cell volume          =    1424.2554 (a.u.)^3
     number of atoms/cell      =           12
     number of atomic types    =            5
     number of electrons       =        98.00
     number of Kohn-Sham states=           49
     kinetic-energy cutoff     =      60.0000  Ry
     charge density cutoff     =     480.0000  Ry
     scf convergence threshold =      1.0E-10
     mixing beta               =       0.7000
     number of iterations used =            8  plain     mixing
     Exchange-correlation= SLA PW PBX PBC
                           (   1   4   3   4   0   0   0)

     celldm(1)=  11.251125  celldm(2)=   0.000000  celldm(3)=   0.000000
     celldm(4)=   0.000000  celldm(5)=   0.000000  celldm(6)=   0.000000

     crystal axes: (cart. coord. in units of alat)
               a(1) = (   1.000000   0.000000   0.000000 )  
               a(2) = (   0.000000   1.000000   0.000000 )  
               a(3) = (   0.000000   0.000000   1.000000 )  

     reciprocal axes: (cart. coord. in units 2 pi/alat)
               b(1) = (  1.000000  0.000000  0.000000 )  
               b(2) = (  0.000000  1.000000  0.000000 )  
               b(3) = (  0.000000  0.000000  1.000000 )  


     PseudoPot. # 1 for Na read from file:
     ./Na.upf
     MD5 check sum: b8e483bdca8edababda73ba53cc0c4c9
     Pseudo is Projector augmented-wave + core cor, Zval =  9.0
     Generated using ATOMPAW code
     Shape of augmentation charge: SINC**2
     Using radial grid of 2342 points,  4 beta functions with: 
                l(1) =   0
                l(2) =   0
                l(3) =   1
                l(4) =   1
     Q(r) pseudized with 0 coefficients 


     PseudoPot. # 2 for K  read from file:
     ./K.upf
     MD5 check sum: 9356cfae17991a8ac93a0af773ad5d28
     Pseudo is Projector augmented-wave + core cor, Zval =  9.0
     Generated using ATOMPAW code
     Shape of augmentation charge: SINC**2
     Using radial grid of 2342 points,  5 beta functions with: 
                l(1) =   0
                l(2) =   0
                l(3) =   1
                l(4) =   1
                l(5) =   2
     Q(r) pseudized with 0 coefficients 


     PseudoPot. # 3 for Zr read from file:
     ./Zr.upf
     MD5 check sum: 10be9e9715c592225794718718b87d8f
     Pseudo is Projector augmented-wave + core cor, Zval = 12.0
     Generated using ATOMPAW code
     Shape of augmentation charge: BESSEL
     Using radial grid of 2342 points,  6 beta functions with: 
                l(1) =   0
                l(2) =   0
                l(3) =   1
                l(4) =   1
                l(5) =   2
                l(6) =   2
     Q(r) pseudized with 0 coefficients 


     PseudoPot. # 4 for Sn read from file:
     ./Sn.upf
     MD5 check sum: f8d5c2bd65c7f969f3af92fc3a9f2821
     Pseudo is Projector augmented-wave + core cor, Zval = 14.0
     Generated using ATOMPAW code
     Shape of augmentation charge: BESSEL
     Using radial grid of 2342 points,  6 beta functions with: 
                l(1) =   0
                l(2) =   0
                l(3) =   1
                l(4) =   1
                l(5) =   2
                l(6) =   2
     Q(r) pseudized with 0 coefficients 


     PseudoPot. # 5 for O  read from file:
     ./O.upf
     MD5 check sum: 45fbb1c0d1f8837f1e386a2947d3aa26
     Pseudo is Projector augmented-wave + core cor, Zval =  6.0
     Generated using ATOMPAW code
     Shape of augmentation charge: SINC**2
     Using radial grid of 2342 points,  4 beta functions with: 
                l(1) =   0
                l(2) =   0
                l(3) =   1
                l(4) =   1
     Q(r) pseudized with 0 coefficients 


     atomic species   valence    mass     pseudopotential
        Na             9.00    22.96000     Na( 1.00)
        K              9.00    39.09800     K ( 1.00)
        Zr            12.00    91.22400     Zr( 1.00)
        Sn            14.00   118.71000     Sn( 1.00)
        O              6.00    15.99900     O ( 1.00)

      2 Sym. Ops. (no inversion) found



   Cartesian axes

     site n.     atom                  positions (alat units)
         1           K   tau(   1) = (   0.0000000   0.0000000   0.0000000  )
         2           Na  tau(   2) = (   0.5000000   0.5000000   0.0000000  )
         3           K   tau(   3) = (   0.5000000   0.0000000   0.5000000  )
         4           Na  tau(   4) = (   0.0000000   0.5000000   0.5000000  )
         5           Zr  tau(   5) = (   0.2500000   0.2500000   0.2500000  )
         6           Sn  tau(   6) = (   0.7500000   0.7500000   0.7500000  )
         7           O   tau(   7) = (   0.2500000   0.0000000   0.0000000  )
         8           O   tau(   8) = (   0.7500000   0.0000000   0.0000000  )
         9           O   tau(   9) = (   0.0000000   0.2500000   0.0000000  )
        10           O   tau(  10) = (   0.0000000   0.7500000   0.0000000  )
        11           O   tau(  11) = (   0.0000000   0.0000000   0.2500000  )
        12           O   tau(  12) = (   0.0000000   0.0000000   0.7500000  )

     number of k points=    39
                       cart. coord. in units 2pi/alat
        k(    1) = (   0.0000000   0.0000000   0.0000000), wk =   0.0160000
        k(    2) = (   0.0000000   0.0000000   0.2000000), wk =   0.0640000
        k(    3) = (   0.0000000   0.0000000   0.4000000), wk =   0.0640000
        k(    4) = (   0.0000000   0.2000000   0.2000000), wk =   0.0640000
        k(    5) = (   0.0000000   0.2000000   0.4000000), wk =   0.0640000
        k(    6) = (   0.0000000   0.4000000   0.4000000), wk =   0.0640000
        k(    7) = (   0.2000000   0.2000000   0.2000000), wk =   0.0320000
        k(    8) = (   0.2000000   0.2000000   0.4000000), wk =   0.0640000
        k(    9) = (   0.2000000   0.4000000   0.4000000), wk =   0.0640000
        k(   10) = (   0.4000000   0.4000000   0.4000000), wk =   0.0320000
        k(   11) = (   0.0000000   0.2000000   0.0000000), wk =   0.0320000
        k(   12) = (   0.0000000   0.4000000   0.0000000), wk =   0.0320000
        k(   13) = (   0.0000000   0.2000000  -0.2000000), wk =   0.0640000
        k(   14) = (   0.2000000   0.0000000  -0.2000000), wk =   0.0320000
        k(   15) = (  -0.2000000   0.0000000  -0.2000000), wk =   0.0320000
        k(   16) = (   0.0000000   0.2000000  -0.4000000), wk =   0.0640000
        k(   17) = (   0.2000000   0.0000000  -0.4000000), wk =   0.0640000
        k(   18) = (  -0.2000000   0.0000000  -0.4000000), wk =   0.0640000
        k(   19) = (   0.0000000   0.4000000   0.2000000), wk =   0.0640000
        k(   20) = (   0.0000000   0.4000000  -0.2000000), wk =   0.0640000
        k(   21) = (   0.0000000   0.4000000  -0.4000000), wk =   0.0640000
        k(   22) = (   0.4000000   0.0000000  -0.4000000), wk =   0.0320000
        k(   23) = (  -0.4000000   0.0000000  -0.4000000), wk =   0.0320000
        k(   24) = (  -0.2000000   0.2000000  -0.2000000), wk =   0.0320000
        k(   25) = (   0.2000000  -0.2000000  -0.2000000), wk =   0.0640000
        k(   26) = (  -0.2000000   0.2000000  -0.4000000), wk =   0.0640000
        k(   27) = (   0.2000000  -0.2000000  -0.4000000), wk =   0.0640000
        k(   28) = (   0.2000000   0.2000000  -0.4000000), wk =   0.0640000
        k(   29) = (  -0.2000000   0.4000000   0.2000000), wk =   0.0640000
        k(   30) = (  -0.2000000  -0.4000000  -0.2000000), wk =   0.0320000
        k(   31) = (   0.2000000  -0.4000000   0.2000000), wk =   0.0320000
        k(   32) = (  -0.2000000   0.4000000  -0.4000000), wk =   0.0640000
        k(   33) = (   0.2000000  -0.4000000  -0.4000000), wk =   0.0640000
        k(   34) = (   0.4000000   0.2000000  -0.4000000), wk =   0.0640000
        k(   35) = (  -0.4000000  -0.2000000  -0.4000000), wk =   0.0320000
        k(   36) = (   0.4000000  -0.2000000   0.4000000), wk =   0.0320000
        k(   37) = (  -0.4000000   0.4000000   0.2000000), wk =   0.0640000
        k(   38) = (  -0.4000000   0.4000000  -0.4000000), wk =   0.0320000
        k(   39) = (   0.4000000  -0.4000000  -0.4000000), wk =   0.0640000

     Dense  grid:   253119 G-vectors     FFT dimensions: (  80,  80,  80)

     Smooth grid:    89199 G-vectors     FFT dimensions: (  60,  60,  60)

     Estimated max dynamical RAM per process >      90.54 MB

     Estimated total dynamical RAM >       1.41 GB

     Check: negative core charge=   -0.000001

     Initial potential from superposition of free atoms

     starting charge      97.9418, renormalised to      98.0000
     Starting wfcs are  126 randomized atomic wfcs
     Checking if some PAW data can be deallocated... 

     total cpu time spent up to now is        8.0 secs

     per-process dynamical memory:    78.2 Mb

     Self-consistent Calculation

     iteration #  1     ecut=    60.00 Ry     beta= 0.70
     Davidson diagonalization with overlap
     ethr =  1.00E-02,  avg # of iterations =  2.1

     total cpu time spent up to now is       13.7 secs

     total energy              =   -1438.25965542 Ry
     estimated scf accuracy    <       4.13118450 Ry

     iteration #  2     ecut=    60.00 Ry     beta= 0.70
     Davidson diagonalization with overlap
     ethr =  4.22E-03,  avg # of iterations =  5.3

     total cpu time spent up to now is       23.8 secs

     total energy              =   -1433.83564912 Ry
     estimated scf accuracy    <      51.54693034 Ry

     iteration #  3     ecut=    60.00 Ry     beta= 0.70
     Davidson diagonalization with overlap
     ethr =  4.22E-03,  avg # of iterations =  8.0

     total cpu time spent up to now is       35.4 secs

     total energy              =   -1440.49011287 Ry
     estimated scf accuracy    <       3.09106833 Ry

     iteration #  4     ecut=    60.00 Ry     beta= 0.70
     Davidson diagonalization with overlap
     ethr =  3.15E-03,  avg # of iterations =  4.6

     total cpu time spent up to now is       41.9 secs

     total energy              =   -1440.62841907 Ry
     estimated scf accuracy    <       0.74154308 Ry

     iteration #  5     ecut=    60.00 Ry     beta= 0.70
     Davidson diagonalization with overlap
     ethr =  7.57E-04,  avg # of iterations =  4.4

     total cpu time spent up to now is       48.2 secs

     total energy              =   -1440.61281910 Ry
     estimated scf accuracy    <       0.35202569 Ry

     iteration #  6     ecut=    60.00 Ry     beta= 0.70
     Davidson diagonalization with overlap
     ethr =  3.59E-04,  avg # of iterations =  5.3

     total cpu time spent up to now is       55.2 secs

     total energy              =   -1440.63312718 Ry
     estimated scf accuracy    <       0.04212918 Ry

     iteration #  7     ecut=    60.00 Ry     beta= 0.70
     Davidson diagonalization with overlap
     ethr =  4.30E-05,  avg # of iterations =  5.4

     total cpu time spent up to now is       63.0 secs

     total energy              =   -1440.63843265 Ry
     estimated scf accuracy    <       0.00867834 Ry

     iteration #  8     ecut=    60.00 Ry     beta= 0.70
     Davidson diagonalization with overlap
     ethr =  8.86E-06,  avg # of iterations =  7.5

     total cpu time spent up to now is       72.3 secs

     total energy              =   -1440.63865601 Ry
     estimated scf accuracy    <       0.00587172 Ry

     iteration #  9     ecut=    60.00 Ry     beta= 0.70
     Davidson diagonalization with overlap
     ethr =  5.99E-06,  avg # of iterations =  7.2

     total cpu time spent up to now is       81.1 secs

     total energy              =   -1440.63921720 Ry
     estimated scf accuracy    <       0.00830711 Ry

     iteration # 10     ecut=    60.00 Ry     beta= 0.70
     Davidson diagonalization with overlap
     ethr =  5.99E-06,  avg # of iterations =  6.8

     total cpu time spent up to now is       88.4 secs

     total energy              =   -1440.63991942 Ry
     estimated scf accuracy    <       0.00006778 Ry

     iteration # 11     ecut=    60.00 Ry     beta= 0.70
     Davidson diagonalization with overlap
     ethr =  6.92E-08,  avg # of iterations =  7.1

     total cpu time spent up to now is       99.3 secs

     total energy              =   -1440.64004080 Ry
     estimated scf accuracy    <       0.00015006 Ry

     iteration # 12     ecut=    60.00 Ry     beta= 0.70
     Davidson diagonalization with overlap
     ethr =  6.92E-08,  avg # of iterations =  4.0

     total cpu time spent up to now is      106.0 secs

     total energy              =   -1440.64004059 Ry
     estimated scf accuracy    <       0.00005990 Ry

     iteration # 13     ecut=    60.00 Ry     beta= 0.70
     Davidson diagonalization with overlap
     ethr =  6.11E-08,  avg # of iterations =  5.6

     total cpu time spent up to now is      113.0 secs

     total energy              =   -1440.64004499 Ry
     estimated scf accuracy    <       0.00000542 Ry

     iteration # 14     ecut=    60.00 Ry     beta= 0.70
     Davidson diagonalization with overlap
     ethr =  5.53E-09,  avg # of iterations =  6.3

     total cpu time spent up to now is      122.0 secs

     total energy              =   -1440.64004591 Ry
     estimated scf accuracy    <       0.00000476 Ry

     iteration # 15     ecut=    60.00 Ry     beta= 0.70
     Davidson diagonalization with overlap
     ethr =  4.85E-09,  avg # of iterations =  4.4

     total cpu time spent up to now is      128.9 secs

     total energy              =   -1440.64004635 Ry
     estimated scf accuracy    <       0.00000056 Ry

     iteration # 16     ecut=    60.00 Ry     beta= 0.70
     Davidson diagonalization with overlap
     ethr =  5.73E-10,  avg # of iterations =  6.7

     total cpu time spent up to now is      137.3 secs

     total energy              =   -1440.64004646 Ry
     estimated scf accuracy    <       0.00000022 Ry

     iteration # 17     ecut=    60.00 Ry     beta= 0.70
     Davidson diagonalization with overlap
     ethr =  2.24E-10,  avg # of iterations =  5.7

     total cpu time spent up to now is      144.8 secs

     total energy              =   -1440.64004648 Ry
     estimated scf accuracy    <       0.00000005 Ry

     iteration # 18     ecut=    60.00 Ry     beta= 0.70
     Davidson diagonalization with overlap
     ethr =  5.00E-11,  avg # of iterations =  5.4

     total cpu time spent up to now is      152.6 secs

     total energy              =   -1440.64004648 Ry
     estimated scf accuracy    <       0.00000001 Ry

     iteration # 19     ecut=    60.00 Ry     beta= 0.70
     Davidson diagonalization with overlap
     c_bands:  1 eigenvalues not converged
     ethr =  1.11E-11,  avg # of iterations =  6.1

     total cpu time spent up to now is      159.4 secs

     total energy              =   -1440.64004648 Ry
     estimated scf accuracy    <          2.6E-09 Ry

     iteration # 20     ecut=    60.00 Ry     beta= 0.70
     Davidson diagonalization with overlap
     ethr =  2.70E-12,  avg # of iterations =  6.7

     total cpu time spent up to now is      167.5 secs

     total energy              =   -1440.64004648 Ry
     estimated scf accuracy    <          1.7E-10 Ry

     iteration # 21     ecut=    60.00 Ry     beta= 0.70
     Davidson diagonalization with overlap
     ethr =  1.71E-13,  avg # of iterations =  5.7

     total cpu time spent up to now is      176.2 secs

     End of self-consistent calculation

          k = 0.0000 0.0000 0.0000 ( 11075 PWs)   bands (ev):

   -46.4026 -46.4016 -42.8625 -31.0820 -25.1266 -21.7280 -21.1574 -21.1307
   -19.2164 -19.1545 -19.1258 -18.4761 -18.4549 -18.2726 -18.2714 -18.2557
   -18.2513 -15.5249 -15.4155 -15.3732 -15.3187 -15.1981 -12.9136 -12.8958
    -9.8996  -9.1366  -8.4612  -8.3927  -5.6781  -5.6492  -5.5659  -2.6229
    -1.3512  -1.2869  -0.1023  -0.0322   0.3661   1.8726   1.8799   2.3571
     2.3901   2.6586   3.1747   4.3110   4.3854   5.2388   5.3464   6.6972
     7.1667

          k = 0.0000 0.0000 0.2000 ( 11172 PWs)   bands (ev):

   -46.4026 -46.4016 -42.8625 -31.0820 -25.1265 -21.7286 -21.1576 -21.1312
   -19.2169 -19.1553 -19.1254 -18.4771 -18.4550 -18.2728 -18.2715 -18.2555
   -18.2520 -15.5261 -15.4138 -15.3726 -15.3191 -15.1986 -12.9053 -12.8847
    -9.8984  -9.1166  -8.4597  -8.3890  -5.7982  -5.6585  -5.5776  -2.6310
    -1.3584  -1.2964  -0.0503   0.0897   0.3653   1.8756   1.9103   2.3328
     2.4020   2.8146   3.1897   4.2702   4.3438   5.2138   5.3794   6.6100
     7.1224

          k = 0.0000 0.0000 0.4000 ( 11172 PWs)   bands (ev):

   -46.4025 -46.4017 -42.8625 -31.0819 -25.1264 -21.7297 -21.1580 -21.1320
   -19.2179 -19.1564 -19.1249 -18.4786 -18.4549 -18.2729 -18.2714 -18.2548
   -18.2530 -15.5278 -15.4109 -15.3717 -15.3197 -15.1993 -12.9000 -12.8582
    -9.8951  -9.0832  -8.4574  -8.3817  -6.0138  -5.6573  -5.5834  -2.6441
    -1.3713  -1.3085  -0.0405   0.2647   0.4510   1.8886   1.9762   2.2956
     2.4509   3.0078   3.2234   4.2050   4.2792   5.1721   5.4547   6.4937
     7.0206

          k = 0.0000 0.2000 0.2000 ( 11178 PWs)   bands (ev):

   -46.4026 -46.4016 -42.8625 -31.0819 -25.1265 -21.7291 -21.1583 -21.1312
   -19.2157 -19.1544 -19.1277 -18.4785 -18.4562 -18.2729 -18.2715 -18.2557
   -18.2518 -15.5241 -15.4124 -15.3732 -15.3193 -15.1991 -12.9046 -12.8704
    -9.8707  -9.1178  -8.4603  -8.3889  -5.7999  -5.7297  -5.6430  -2.6448
    -1.3667  -1.3145   0.0023   0.2138   0.3699   1.8892   1.9370   2.3571
     2.4211   2.9199   3.2156   4.2441   4.2974   5.1868   5.4392   6.6056
     7.2152

          k = 0.0000 0.2000 0.4000 ( 11176 PWs)   bands (ev):

   -46.4025 -46.4017 -42.8625 -31.0818 -25.1264 -21.7301 -21.1587 -21.1321
   -19.2174 -19.1561 -19.1271 -18.4790 -18.4554 -18.2729 -18.2714 -18.2549
   -18.2530 -15.5262 -15.4105 -15.3722 -15.3198 -15.1996 -12.8947 -12.8475
    -9.8699  -9.0829  -8.4580  -8.3815  -6.0127  -5.7293  -5.6496  -2.6604
    -1.3811  -1.3267   0.0576   0.3488   0.4976   1.9039   1.9883   2.3287
     2.4664   3.0169   3.2470   4.1726   4.2414   5.1451   5.5805   6.5210
     7.0220

          k = 0.0000 0.4000 0.4000 ( 11190 PWs)   bands (ev):

   -46.4025 -46.4017 -42.8625 -31.0818 -25.1264 -21.7305 -21.1598 -21.1321
   -19.2174 -19.1560 -19.1306 -18.4790 -18.4555 -18.2730 -18.2715 -18.2549
   -18.2531 -15.5239 -15.4106 -15.3731 -15.3198 -15.1997 -12.8896 -12.8257
    -9.8289  -9.0800  -8.4591  -8.3811  -6.0111  -5.9423  -5.6519  -2.6899
    -1.3951  -1.3541   0.1328   0.4990   0.6653   1.9208   2.0371   2.3104
     2.5328   2.9625   3.2950   4.1184   4.1911   5.0980   5.8906   6.5001
     6.9600

          k = 0.2000 0.2000 0.2000 ( 11200 PWs)   bands (ev):

   -46.4026 -46.4016 -42.8625 -31.0819 -25.1264 -21.7300 -21.1585 -21.1318
   -19.2155 -19.1552 -19.1273 -18.4788 -18.4575 -18.2730 -18.2712 -18.2548
   -18.2529 -15.5262 -15.4103 -15.3722 -15.3197 -15.1997 -12.8905 -12.8625
    -9.8807  -9.0824  -8.4571  -8.3950  -5.8089  -5.7793  -5.7206  -2.6553
    -1.3781  -1.3265   0.1765   0.2239   0.3589   1.9363   1.9604   2.3770
     2.4343   3.0099   3.2350   4.1967   4.2373   5.1620   5.4856   6.7043
     6.9671

          k = 0.2000 0.2000 0.4000 ( 11163 PWs)   bands (ev):

   -46.4025 -46.4017 -42.8625 -31.0818 -25.1263 -21.7306 -21.1588 -21.1326
   -19.2174 -19.1570 -19.1273 -18.4791 -18.4569 -18.2731 -18.2711 -18.2544
   -18.2535 -15.5257 -15.4084 -15.3722 -15.3202 -15.2004 -12.8772 -12.8479
    -9.8456  -9.0777  -8.4582  -8.3925  -6.0045  -5.7882  -5.7229  -2.6840
    -1.3974  -1.3407   0.2198   0.3945   0.5221   1.9504   2.0061   2.3716
     2.4737   3.0075   3.2674   4.1196   4.2049   5.1167   5.6590   6.6148
     6.9780

          k = 0.2000 0.4000 0.4000 ( 11170 PWs)   bands (ev):

   -46.4025 -46.4017 -42.8625 -31.0817 -25.1263 -21.7308 -21.1600 -21.1327
   -19.2185 -19.1574 -19.1308 -18.4783 -18.4562 -18.2732 -18.2711 -18.2543
   -18.2536 -15.5237 -15.4093 -15.3731 -15.3201 -15.2002 -12.8727 -12.8247
    -9.8054  -9.0749  -8.4592  -8.3923  -6.0031  -5.9420  -5.7831  -2.7134
    -1.4107  -1.3700   0.3267   0.5520   0.6650   1.9634   2.0482   2.3670
     2.5376   2.9363   3.3140   4.0928   4.1476   5.0696   5.9611   6.5342
     6.8947

          k = 0.4000 0.4000 0.4000 ( 11215 PWs)   bands (ev):

   -46.4026 -46.4017 -42.8625 -31.0816 -25.1264 -21.7308 -21.1602 -21.1335
   -19.2217 -19.1599 -19.1314 -18.4769 -18.4559 -18.2735 -18.2709 -18.2551
   -18.2528 -15.5210 -15.4082 -15.3741 -15.3205 -15.2005 -12.8474 -12.8257
    -9.7240  -9.1107  -8.4635  -8.4034  -5.9994  -5.9814  -5.9332  -2.7537
    -1.4387  -1.3888   0.6342   0.6403   0.6865   2.0148   2.0379   2.4865
     2.5324   2.8779   3.3486   4.0370   4.1311   5.0201   6.2015   6.5152
     6.8323

          k = 0.0000 0.2000 0.0000 ( 11172 PWs)   bands (ev):

   -46.4026 -46.4016 -42.8625 -31.0820 -25.1266 -21.7284 -21.1581 -21.1307
   -19.2155 -19.1537 -19.1279 -18.4773 -18.4560 -18.2730 -18.2716 -18.2560
   -18.2514 -15.5232 -15.4145 -15.3738 -15.3189 -15.1986 -12.9143 -12.8798
    -9.8726  -9.1367  -8.4619  -8.3926  -5.7383  -5.6775  -5.6166  -2.6391
    -1.3591  -1.3042  -0.1017   0.1386   0.3802   1.8745   1.9121   2.3131
     2.4349   2.8114   3.1983   4.2887   4.3454   5.2107   5.3804   6.6742
     7.1769

          k = 0.0000 0.4000 0.0000 ( 11172 PWs)   bands (ev):

   -46.4026 -46.4016 -42.8625 -31.0819 -25.1266 -21.7290 -21.1591 -21.1308
   -19.2142 -19.1525 -19.1312 -18.4789 -18.4575 -18.2732 -18.2715 -18.2562
   -18.2516 -15.5203 -15.4128 -15.3746 -15.3191 -15.1993 -12.9154 -12.8537
    -9.8259  -9.1368  -8.4629  -8.3924  -5.9476  -5.6766  -5.6250  -2.6651
    -1.3697  -1.3314  -0.1006   0.3401   0.4618   1.8776   2.0018   2.2761
     2.5011   2.9811   3.2505   4.2485   4.2978   5.1626   5.4899   6.6340
     7.1602

          k = 0.0000 0.2000-0.2000 ( 11178 PWs)   bands (ev):

   -46.4026 -46.4016 -42.8625 -31.0819 -25.1265 -21.7289 -21.1583 -21.1312
   -19.2170 -19.1551 -19.1275 -18.4771 -18.4550 -18.2730 -18.2715 -18.2556
   -18.2520 -15.5247 -15.4138 -15.3732 -15.3192 -15.1987 -12.9033 -12.8700
    -9.8743  -9.1145  -8.4604  -8.3888  -5.7999  -5.7317  -5.6414  -2.6511
    -1.3666  -1.3140   0.0052   0.2130   0.4252   1.8749   1.9265   2.2915
     2.4469   2.8810   3.2111   4.2525   4.3131   5.1857   5.4352   6.6345
     7.0053

          k = 0.2000 0.0000-0.2000 ( 11178 PWs)   bands (ev):

   -46.4025 -46.4017 -42.8625 -31.0819 -25.1266 -21.7288 -21.1577 -21.1317
   -19.2176 -19.1562 -19.1257 -18.4782 -18.4547 -18.2729 -18.2714 -18.2559
   -18.2518 -15.5238 -15.4120 -15.3732 -15.3195 -15.1993 -12.8900 -12.8872
    -9.8544  -9.1389  -8.4621  -8.3834  -5.8117  -5.7715  -5.5825  -2.6499
    -1.3691  -1.3062   0.0467   0.1720   0.4432   1.8798   1.9076   2.3138
     2.4266   2.8425   3.2033   4.2245   4.3330   5.1860   5.4324   6.5541
     7.1787

          k =-0.2000 0.0000-0.2000 ( 11178 PWs)   bands (ev):

   -46.4026 -46.4016 -42.8625 -31.0819 -25.1264 -21.7295 -21.1579 -21.1317
   -19.2171 -19.1563 -19.1249 -18.4772 -18.4559 -18.2730 -18.2713 -18.2546
   -18.2530 -15.5282 -15.4121 -15.3717 -15.3195 -15.1990 -12.8892 -12.8784
    -9.9073  -9.0825  -8.4565  -8.3951  -5.8100  -5.7750  -5.5860  -2.6393
    -1.3699  -1.3074   0.0432   0.1776   0.3367   1.9187   1.9232   2.3769
     2.3925   2.9538   3.2076   4.2252   4.2860   5.1880   5.4396   6.6481
     6.9565

          k = 0.0000 0.2000-0.4000 ( 11176 PWs)   bands (ev):

   -46.4025 -46.4017 -42.8625 -31.0818 -25.1264 -21.7299 -21.1587 -21.1321
   -19.2181 -19.1566 -19.1270 -18.4782 -18.4547 -18.2730 -18.2715 -18.2547
   -18.2532 -15.5266 -15.4114 -15.3722 -15.3197 -15.1993 -12.8938 -12.8474
    -9.8721  -9.0809  -8.4581  -8.3815  -6.0129  -5.7301  -5.6488  -2.6642
    -1.3808  -1.3265   0.0599   0.3612   0.5188   1.8932   1.9830   2.2924
     2.4825   2.9855   3.2450   4.1787   4.2487   5.1446   5.5819   6.5245
     6.9788

          k = 0.2000 0.0000-0.4000 ( 11176 PWs)   bands (ev):

   -46.4025 -46.4017 -42.8625 -31.0818 -25.1265 -21.7298 -21.1580 -21.1326
   -19.2186 -19.1575 -19.1254 -18.4790 -18.4553 -18.2731 -18.2713 -18.2556
   -18.2524 -15.5246 -15.4092 -15.3727 -15.3201 -15.2001 -12.8868 -12.8600
    -9.8353  -9.1170  -8.4612  -8.3850  -6.0042  -5.7849  -5.5857  -2.6698
    -1.3883  -1.3203   0.0688   0.3693   0.5204   1.9026   1.9705   2.3097
     2.4788   2.9506   3.2389   4.1511   4.2696   5.1413   5.5777   6.5144
     7.1703

          k =-0.2000 0.0000-0.4000 ( 11176 PWs)   bands (ev):

   -46.4025 -46.4017 -42.8625 -31.0818 -25.1263 -21.7302 -21.1581 -21.1326
   -19.2183 -19.1575 -19.1249 -18.4784 -18.4561 -18.2732 -18.2712 -18.2546
   -18.2534 -15.5273 -15.4092 -15.3717 -15.3201 -15.1999 -12.8833 -12.8576
    -9.8697  -9.0800  -8.4575  -8.3927  -6.0053  -5.7859  -5.5871  -2.6634
    -1.3889  -1.3209   0.0668   0.3426   0.4844   1.9200   1.9869   2.3453
     2.4583   3.0264   3.2416   4.1490   4.2440   5.1424   5.5740   6.5768
     6.9762

          k = 0.0000 0.4000 0.2000 ( 11176 PWs)   bands (ev):

   -46.4026 -46.4016 -42.8625 -31.0818 -25.1265 -21.7296 -21.1594 -21.1313
   -19.2151 -19.1537 -19.1310 -18.4793 -18.4570 -18.2732 -18.2714 -18.2559
   -18.2519 -15.5216 -15.4116 -15.3740 -15.3194 -15.1996 -12.9041 -12.8450
    -9.8267  -9.1162  -8.4614  -8.3886  -5.9461  -5.7942  -5.6478  -2.6731
    -1.3781  -1.3423   0.0201   0.3956   0.5031   1.8941   2.0127   2.3071
     2.5021   2.9984   3.2663   4.2040   4.2476   5.1390   5.6066   6.6089
     7.0879

          k = 0.0000 0.4000-0.2000 ( 11176 PWs)   bands (ev):

   -46.4026 -46.4016 -42.8625 -31.0818 -25.1265 -21.7295 -21.1594 -21.1313
   -19.2159 -19.1541 -19.1309 -18.4784 -18.4562 -18.2732 -18.2715 -18.2558
   -18.2521 -15.5219 -15.4125 -15.3740 -15.3193 -15.1993 -12.9033 -12.8447
    -9.8292  -9.1139  -8.4615  -8.3886  -5.9468  -5.7942  -5.6474  -2.6769
    -1.3779  -1.3421   0.0214   0.4101   0.5235   1.8868   2.0059   2.2727
     2.5132   2.9682   3.2636   4.2097   4.2557   5.1382   5.6161   6.6085
     6.9817

          k = 0.0000 0.4000-0.4000 ( 11190 PWs)   bands (ev):

   -46.4025 -46.4017 -42.8625 -31.0818 -25.1264 -21.7304 -21.1598 -21.1321
   -19.2179 -19.1563 -19.1305 -18.4785 -18.4550 -18.2731 -18.2715 -18.2547
   -18.2532 -15.5242 -15.4111 -15.3731 -15.3198 -15.1996 -12.8891 -12.8257
    -9.8304  -9.0787  -8.4591  -8.3810  -6.0119  -5.9418  -5.6517  -2.6923
    -1.3948  -1.3541   0.1341   0.5126   0.6747   1.9132   2.0335   2.2858
     2.5448   2.9424   3.2940   4.1226   4.1932   5.0975   5.9027   6.4909
     6.9291

          k = 0.4000 0.0000-0.4000 ( 11190 PWs)   bands (ev):

   -46.4025 -46.4017 -42.8625 -31.0817 -25.1265 -21.7302 -21.1582 -21.1334
   -19.2196 -19.1591 -19.1257 -18.4791 -18.4568 -18.2734 -18.2710 -18.2559
   -18.2524 -15.5220 -15.4064 -15.3733 -15.3207 -15.2012 -12.8738 -12.8488
    -9.7619  -9.1435  -8.4642  -8.3984  -6.0011  -5.9752  -5.5868  -2.7042
    -1.4170  -1.3367   0.1513   0.5521   0.6437   1.9289   2.0088   2.3273
     2.5424   2.9035   3.2772   4.0603   4.2275   5.0910   5.8545   6.5960
     7.0006

          k =-0.4000 0.0000-0.4000 ( 11190 PWs)   bands (ev):

   -46.4026 -46.4017 -42.8625 -31.0817 -25.1264 -21.7305 -21.1583 -21.1334
   -19.2194 -19.1591 -19.1254 -18.4787 -18.4573 -18.2734 -18.2710 -18.2555
   -18.2527 -15.5237 -15.4064 -15.3727 -15.3207 -15.2011 -12.8701 -12.8487
    -9.7875  -9.1155  -8.4619  -8.4037  -5.9996  -5.9786  -5.5873  -2.7004
    -1.4173  -1.3371   0.1493   0.5216   0.6325   1.9427   2.0197   2.3553
     2.5248   2.9470   3.2799   4.0589   4.2134   5.0916   5.8491   6.7314
     6.8378

          k =-0.2000 0.2000-0.2000 ( 11200 PWs)   bands (ev):

   -46.4026 -46.4016 -42.8625 -31.0819 -25.1264 -21.7296 -21.1586 -21.1318
   -19.2183 -19.1567 -19.1269 -18.4762 -18.4551 -18.2733 -18.2714 -18.2547
   -18.2532 -15.5271 -15.4132 -15.3722 -15.3194 -15.1987 -12.8883 -12.8617
    -9.8848  -9.0801  -8.4572  -8.3949  -5.8104  -5.7786  -5.7195  -2.6594
    -1.3791  -1.3252   0.1806   0.2210   0.4284   1.9163   1.9200   2.3261
     2.4541   2.9588   3.2247   4.2214   4.2529   5.1595   5.5399   6.6798
     6.7736

          k = 0.2000-0.2000-0.2000 ( 11200 PWs)   bands (ev):

   -46.4025 -46.4017 -42.8625 -31.0819 -25.1266 -21.7291 -21.1584 -21.1318
   -19.2175 -19.1558 -19.1279 -18.4786 -18.4550 -18.2730 -18.2715 -18.2560
   -18.2518 -15.5224 -15.4118 -15.3738 -15.3196 -15.1994 -12.8896 -12.8712
    -9.8285  -9.1388  -8.4627  -8.3832  -5.8112  -5.7823  -5.7102  -2.6672
    -1.3773  -1.3250   0.1708   0.2314   0.4691   1.8819   1.9329   2.3573
     2.4281   2.9035   3.2275   4.2063   4.2972   5.1588   5.5165   6.5565
     7.1301

          k =-0.2000 0.2000-0.4000 ( 11163 PWs)   bands (ev):

   -46.4025 -46.4017 -42.8625 -31.0818 -25.1263 -21.7302 -21.1589 -21.1326
   -19.2198 -19.1582 -19.1269 -18.4770 -18.4549 -18.2733 -18.2712 -18.2546
   -18.2533 -15.5262 -15.4107 -15.3722 -15.3199 -15.1994 -12.8759 -12.8471
    -9.8467  -9.0792  -8.4581  -8.3925  -6.0045  -5.7861  -5.7240  -2.6807
    -1.3992  -1.3392   0.2153   0.4104   0.5363   1.9173   1.9811   2.3739
     2.4739   2.9995   3.2589   4.1484   4.2102   5.1147   5.7429   6.5525
     6.8619

          k = 0.2000-0.2000-0.4000 ( 11163 PWs)   bands (ev):

   -46.4025 -46.4017 -42.8625 -31.0818 -25.1265 -21.7299 -21.1588 -21.1326
   -19.2194 -19.1576 -19.1275 -18.4785 -18.4549 -18.2731 -18.2713 -18.2556
   -18.2524 -15.5233 -15.4098 -15.3732 -15.3201 -15.1999 -12.8787 -12.8511
    -9.8101  -9.1177  -8.4617  -8.3847  -6.0036  -5.7865  -5.7211  -2.6854
    -1.3982  -1.3391   0.2153   0.4236   0.5485   1.9084   1.9757   2.3872
     2.4638   2.9670   3.2603   4.1447   4.2312   5.1141   5.7261   6.5006
     7.0526

          k = 0.2000 0.2000-0.4000 ( 11163 PWs)   bands (ev):

   -46.4025 -46.4017 -42.8625 -31.0818 -25.1265 -21.7300 -21.1587 -21.1326
   -19.2186 -19.1574 -19.1277 -18.4789 -18.4554 -18.2731 -18.2713 -18.2555
   -18.2525 -15.5233 -15.4093 -15.3732 -15.3201 -15.2002 -12.8780 -12.8520
    -9.8119  -9.1146  -8.4619  -8.3847  -6.0034  -5.7902  -5.7184  -2.6912
    -1.3966  -1.3399   0.2236   0.4127   0.5729   1.9224   1.9787   2.3362
     2.4934   2.9424   3.2626   4.1258   4.2407   5.1149   5.6736   6.5417
     7.1188

          k =-0.2000 0.4000 0.2000 ( 11163 PWs)   bands (ev):

   -46.4025 -46.4017 -42.8625 -31.0818 -25.1266 -21.7296 -21.1595 -21.1318
   -19.2173 -19.1552 -19.1314 -18.4790 -18.4555 -18.2730 -18.2715 -18.2561
   -18.2518 -15.5200 -15.4114 -15.3747 -15.3196 -15.1996 -12.8898 -12.8446
    -9.7839  -9.1384  -8.4637  -8.3828  -5.9470  -5.8099  -5.7615  -2.6948
    -1.3882  -1.3544   0.1751   0.4737   0.5469   1.8882   2.0055   2.3553
     2.4964   2.9612   3.2787   4.1741   4.2480   5.1116   5.7414   6.5178
     7.0808

          k =-0.2000-0.4000-0.2000 ( 11163 PWs)   bands (ev):

   -46.4026 -46.4016 -42.8625 -31.0818 -25.1264 -21.7304 -21.1597 -21.1318
   -19.2158 -19.1550 -19.1307 -18.4788 -18.4574 -18.2733 -18.2712 -18.2550
   -18.2528 -15.5238 -15.4104 -15.3731 -15.3197 -15.1999 -12.8903 -12.8360
    -9.8393  -9.0795  -8.4582  -8.3948  -5.9437  -5.8086  -5.7706  -2.6847
    -1.3901  -1.3553   0.1790   0.4232   0.5370   1.9361   2.0317   2.3220
     2.5178   3.0022   3.2836   4.1701   4.1732   5.1142   5.6936   6.7580
     6.7737

          k = 0.2000-0.4000 0.2000 ( 11163 PWs)   bands (ev):

   -46.4026 -46.4016 -42.8625 -31.0818 -25.1264 -21.7301 -21.1598 -21.1318
   -19.2175 -19.1559 -19.1305 -18.4771 -18.4559 -18.2734 -18.2713 -18.2548
   -18.2530 -15.5244 -15.4121 -15.3731 -15.3195 -15.1992 -12.8890 -12.8355
    -9.8420  -9.0779  -8.4583  -8.3948  -5.9442  -5.8095  -5.7690  -2.6873
    -1.3906  -1.3545   0.1815   0.4346   0.5705   1.9243   2.0005   2.2907
     2.5306   2.9738   3.2765   4.1807   4.1845   5.1124   5.7388   6.6902
     6.7133

          k =-0.2000 0.4000-0.4000 ( 11170 PWs)   bands (ev):

   -46.4025 -46.4017 -42.8625 -31.0817 -25.1263 -21.7306 -21.1601 -21.1327
   -19.2200 -19.1581 -19.1305 -18.4769 -18.4550 -18.2734 -18.2712 -18.2544
   -18.2535 -15.5240 -15.4108 -15.3731 -15.3200 -15.1996 -12.8718 -12.8243
    -9.8060  -9.0759  -8.4591  -8.3923  -6.0030  -5.9414  -5.7831  -2.7115
    -1.4117  -1.3691   0.3270   0.5519   0.6832   1.9475   2.0229   2.3586
     2.5473   2.9385   3.3081   4.1076   4.1501   5.0680   6.0310   6.4915
     6.8082

          k = 0.2000-0.4000-0.4000 ( 11170 PWs)   bands (ev):

   -46.4025 -46.4017 -42.8625 -31.0817 -25.1265 -21.7302 -21.1599 -21.1327
   -19.2199 -19.1576 -19.1311 -18.4781 -18.4547 -18.2732 -18.2713 -18.2556
   -18.2524 -15.5213 -15.4103 -15.3741 -15.3200 -15.1998 -12.8728 -12.8294
    -9.7685  -9.1154  -8.4627  -8.3843  -6.0031  -5.9411  -5.7802  -2.7162
    -1.4104  -1.3690   0.3259   0.5674   0.6744   1.9301   2.0202   2.3982
     2.5231   2.9381   3.3089   4.1094   4.1810   5.0676   6.0211   6.4598
     6.9509

          k = 0.4000 0.2000-0.4000 ( 11170 PWs)   bands (ev):

   -46.4025 -46.4017 -42.8625 -31.0817 -25.1265 -21.7303 -21.1589 -21.1334
   -19.2207 -19.1594 -19.1280 -18.4782 -18.4560 -18.2734 -18.2709 -18.2558
   -18.2523 -15.5210 -15.4073 -15.3738 -15.3206 -15.2008 -12.8568 -12.8480
    -9.7377  -9.1429  -8.4648  -8.3983  -6.0009  -5.9746  -5.7238  -2.7239
    -1.4262  -1.3568   0.3444   0.5938   0.6533   1.9520   2.0030   2.4027
     2.5303   2.9084   3.2980   4.0553   4.1992   5.0648   5.9656   6.5722
     6.9026

          k =-0.4000-0.2000-0.4000 ( 11170 PWs)   bands (ev):

   -46.4025 -46.4017 -42.8625 -31.0817 -25.1264 -21.7307 -21.1590 -21.1334
   -19.2196 -19.1591 -19.1278 -18.4786 -18.4573 -18.2733 -18.2709 -18.2552
   -18.2528 -15.5225 -15.4064 -15.3732 -15.3207 -15.2012 -12.8532 -12.8487
    -9.7644  -9.1127  -8.4626  -8.4036  -5.9991  -5.9785  -5.7246  -2.7230
    -1.4259  -1.3576   0.3460   0.5780   0.6319   1.9796   2.0266   2.4163
     2.5160   2.9230   3.3037   4.0456   4.1815   5.0662   5.9193   6.7029
     6.8328

          k = 0.4000-0.2000 0.4000 ( 11170 PWs)   bands (ev):

   -46.4025 -46.4017 -42.8625 -31.0817 -25.1264 -21.7304 -21.1591 -21.1334
   -19.2214 -19.1599 -19.1275 -18.4770 -18.4559 -18.2735 -18.2710 -18.2554
   -18.2527 -15.5228 -15.4082 -15.3732 -15.3205 -15.2004 -12.8531 -12.8474
    -9.7638  -9.1158  -8.4624  -8.4036  -6.0001  -5.9764  -5.7245  -2.7176
    -1.4275  -1.3565   0.3385   0.5869   0.6352   1.9514   2.0037   2.4358
     2.5075   2.9443   3.2966   4.0639   4.1852   5.0650   6.0227   6.6790
     6.7203

          k =-0.4000 0.4000 0.2000 ( 11170 PWs)   bands (ev):

   -46.4025 -46.4017 -42.8625 -31.0817 -25.1265 -21.7303 -21.1599 -21.1327
   -19.2194 -19.1575 -19.1312 -18.4784 -18.4550 -18.2731 -18.2713 -18.2555
   -18.2525 -15.5213 -15.4100 -15.3741 -15.3201 -15.2000 -12.8727 -12.8297
    -9.7697  -9.1133  -8.4628  -8.3843  -6.0035  -5.9419  -5.7797  -2.7196
    -1.4093  -1.3697   0.3288   0.5715   0.6816   1.9328   2.0290   2.3702
     2.5394   2.9173   3.3109   4.0991   4.1861   5.0680   5.9857   6.4783
     6.9889

          k =-0.4000 0.4000-0.4000 ( 11215 PWs)   bands (ev):

   -46.4026 -46.4017 -42.8625 -31.0816 -25.1264 -21.7306 -21.1602 -21.1335
   -19.2228 -19.1604 -19.1312 -18.4759 -18.4550 -18.2736 -18.2709 -18.2553
   -18.2528 -15.5212 -15.4093 -15.3741 -15.3204 -15.2000 -12.8465 -12.8256
    -9.7234  -9.1128  -8.4634  -8.4034  -6.0000  -5.9781  -5.9351  -2.7506
    -1.4395  -1.3881   0.6117   0.6362   0.7171   2.0028   2.0171   2.4800
     2.5431   2.8966   3.3435   4.0484   4.1313   5.0189   6.2822   6.5171
     6.7094

          k = 0.4000-0.4000-0.4000 ( 11215 PWs)   bands (ev):

   -46.4025 -46.4017 -42.8625 -31.0816 -25.1265 -21.7305 -21.1601 -21.1335
   -19.2225 -19.1600 -19.1316 -18.4768 -18.4550 -18.2735 -18.2710 -18.2557
   -18.2523 -15.5195 -15.4088 -15.3747 -15.3205 -15.2003 -12.8470 -12.8290
    -9.6959  -9.1416  -8.4657  -8.3980  -6.0007  -5.9811  -5.9298  -2.7554
    -1.4383  -1.3883   0.6097   0.6576   0.7106   1.9887   2.0228   2.4963
     2.5295   2.8876   3.3447   4.0428   4.1527   5.0187   6.2285   6.4851
     6.8407

     highest occupied level (ev):     7.2152

!    total energy              =   -1440.64004648 Ry
     total all-electron energy =     -1440.640046 Ry
     estimated scf accuracy    <          2.4E-11 Ry

     The total energy is the sum of the following terms:
     one-electron contribution =    -585.01306908 Ry
     hartree contribution      =     340.48173034 Ry
     xc contribution           =    -130.44522574 Ry
     ewald contribution        =    -342.76060903 Ry
     one-center paw contrib.   =    -722.90287297 Ry

     convergence has been achieved in  21 iterations

     Forces acting on atoms (cartesian axes, Ry/au):

     atom    1 type  2   force =    -0.06352443   -0.04058529   -0.06352443
     atom    2 type  1   force =     0.00327275    0.00511669   -0.00837516
     atom    3 type  2   force =    -0.02534460    0.01558988   -0.02534460
     atom    4 type  1   force =    -0.00837516    0.00511669    0.00327275
     atom    5 type  3   force =    -0.07953195   -0.06343827   -0.07953195
     atom    6 type  4   force =    -0.00997094   -0.09244531   -0.00997094
     atom    7 type  5   force =     0.66193283    0.02413115    0.03048026
     atom    8 type  5   force =    -0.58981429    0.03355582    0.03080879
     atom    9 type  5   force =     0.02789004    0.64672391    0.02789004
     atom   10 type  5   force =     0.02217671   -0.59145223    0.02217671
     atom   11 type  5   force =     0.03048026    0.02413115    0.66193283
     atom   12 type  5   force =     0.03080879    0.03355582   -0.58981429

     Total force =     1.544905     Total SCF correction =     0.000015


     Computing stress (Cartesian axis) and pressure

          total   stress  (Ry/bohr**3)                   (kbar)     P=      455.93
   0.00306776  -0.00008007   0.00000060          451.28      -11.78        0.09
  -0.00008007   0.00316253  -0.00008007          -11.78      465.22      -11.78
   0.00000060  -0.00008007   0.00306776            0.09      -11.78      451.28


     Writing all to output data dir ./Na2K2SnZrO6.save/

     init_run     :      6.45s CPU      6.61s WALL (       1 calls)
     electrons    :    164.34s CPU    168.34s WALL (       1 calls)
     forces       :      1.38s CPU      1.44s WALL (       1 calls)
     stress       :      3.97s CPU      4.06s WALL (       1 calls)

     Called by init_run:
     wfcinit      :      3.84s CPU      3.93s WALL (       1 calls)
     potinit      :      1.03s CPU      1.05s WALL (       1 calls)
     hinit0       :      1.28s CPU      1.30s WALL (       1 calls)

     Called by electrons:
     c_bands      :    135.89s CPU    138.37s WALL (      21 calls)
     sum_band     :     14.87s CPU     15.71s WALL (      21 calls)
     v_of_rho     :      0.61s CPU      0.64s WALL (      22 calls)
     newd         :      2.42s CPU      2.91s WALL (      22 calls)
     PAW_pot      :     11.01s CPU     11.11s WALL (      22 calls)
     mix_rho      :      0.10s CPU      0.11s WALL (      21 calls)

     Called by c_bands:
     init_us_2    :      1.42s CPU      1.48s WALL (    1755 calls)
     init_us_2:cp :      1.41s CPU      1.47s WALL (    1755 calls)
     cegterg      :    131.65s CPU    134.04s WALL (     819 calls)

     Called by *egterg:
     cdiaghg      :     51.46s CPU     52.10s WALL (    5516 calls)
     h_psi        :     57.83s CPU     59.24s WALL (    5555 calls)
     s_psi        :      5.38s CPU      5.44s WALL (    5555 calls)
     g_psi        :      0.89s CPU      0.90s WALL (    4697 calls)

     Called by h_psi:
     h_psi:calbec :      6.72s CPU      7.00s WALL (    5555 calls)
     vloc_psi     :     45.17s CPU     46.24s WALL (    5555 calls)
     add_vuspsi   :      5.57s CPU      5.63s WALL (    5555 calls)

     General routines
     calbec       :      9.14s CPU      9.57s WALL (    6569 calls)
     fft          :      0.60s CPU      0.63s WALL (     309 calls)
     ffts         :      0.25s CPU      0.25s WALL (      43 calls)
     fftw         :     47.15s CPU     48.26s WALL (  260887 calls)
     interpolate  :      0.27s CPU      0.27s WALL (      22 calls)

     Parallel routines

     PWSCF        :   2m57.79s CPU   3m 5.73s WALL


   This run was terminated on:   2: 9:28   1Dec2025            

=------------------------------------------------------------------------------=
   JOB DONE.
=------------------------------------------------------------------------------=
