
     Program PWSCF v.7.1 starts on 30Nov2025 at 23:34:16 

     This program is part of the open-source Quantum ESPRESSO suite
     for quantum simulation of materials; please cite
         "P. Giannozzi et al., J. Phys.:Condens. Matter 21 395502 (2009);
         "P. Giannozzi et al., J. Phys.:Condens. Matter 29 465901 (2017);
         "P. Giannozzi et al., J. Chem. Phys. 152 154105 (2020);
          URL http://www.quantum-espresso.org", 
     in publications or presentations arising from this work. More details at
     http://www.quantum-espresso.org/quote

     Parallel version (MPI & OpenMP), running on      16 processor cores
     Number of MPI processes:                16
     Threads/MPI process:                     1

     MPI processes distributed on     1 nodes
     32873 MiB available memory on the printing compute node when the environment starts

     Waiting for input...
     Reading input from standard input

     Current dimensions of program PWSCF are:
     Max number of different atomic species (ntypx) = 10
     Max number of k-points (npk) =  40000
     Max angular momentum in pseudopotentials (lmaxx) =  4
     Message from routine read_pp_mesh:
     mismatch in mesh size, discarding the one in header
     Message from routine read_pp_mesh:
     mismatch in mesh size, discarding the one in header
     Message from routine read_pp_mesh:
     mismatch in mesh size, discarding the one in header
     Message from routine read_pp_mesh:
     mismatch in mesh size, discarding the one in header
     Message from routine read_pp_mesh:
     mismatch in mesh size, discarding the one in header
     Message from routine setup:
     using ibrav=0 with symmetry is DISCOURAGED, use correct ibrav instead

     R & G space division:  proc/nbgrp/npool/nimage =      16
     Subspace diagonalization in iterative solution of the eigenvalue problem:
     a serial algorithm will be used


     Parallelization info
     --------------------
     sticks:   dense  smooth     PW     G-vecs:    dense   smooth      PW
     Min         302     151     41                15818     5573     813
     Max         304     152     43                15821     5577     816
     Sum        4849    2417    673               253119    89199   13037

     Using Slab Decomposition



     bravais-lattice index     =            0
     lattice parameter (alat)  =      11.2511  a.u.
     unit-cell volume          =    1424.2554 (a.u.)^3
     number of atoms/cell      =           12
     number of atomic types    =            5
     number of electrons       =        98.00
     number of Kohn-Sham states=           49
     kinetic-energy cutoff     =      60.0000  Ry
     charge density cutoff     =     480.0000  Ry
     scf convergence threshold =      1.0E-10
     mixing beta               =       0.7000
     number of iterations used =            8  plain     mixing
     Exchange-correlation= SLA PW PBX PBC
                           (   1   4   3   4   0   0   0)

     celldm(1)=  11.251125  celldm(2)=   0.000000  celldm(3)=   0.000000
     celldm(4)=   0.000000  celldm(5)=   0.000000  celldm(6)=   0.000000

     crystal axes: (cart. coord. in units of alat)
               a(1) = (   1.000000   0.000000   0.000000 )  
               a(2) = (   0.000000   1.000000   0.000000 )  
               a(3) = (   0.000000   0.000000   1.000000 )  

     reciprocal axes: (cart. coord. in units 2 pi/alat)
               b(1) = (  1.000000  0.000000  0.000000 )  
               b(2) = (  0.000000  1.000000  0.000000 )  
               b(3) = (  0.000000  0.000000  1.000000 )  


     PseudoPot. # 1 for Na read from file:
     ./Na.upf
     MD5 check sum: b8e483bdca8edababda73ba53cc0c4c9
     Pseudo is Projector augmented-wave + core cor, Zval =  9.0
     Generated using ATOMPAW code
     Shape of augmentation charge: SINC**2
     Using radial grid of 2342 points,  4 beta functions with: 
                l(1) =   0
                l(2) =   0
                l(3) =   1
                l(4) =   1
     Q(r) pseudized with 0 coefficients 


     PseudoPot. # 2 for K  read from file:
     ./K.upf
     MD5 check sum: 9356cfae17991a8ac93a0af773ad5d28
     Pseudo is Projector augmented-wave + core cor, Zval =  9.0
     Generated using ATOMPAW code
     Shape of augmentation charge: SINC**2
     Using radial grid of 2342 points,  5 beta functions with: 
                l(1) =   0
                l(2) =   0
                l(3) =   1
                l(4) =   1
                l(5) =   2
     Q(r) pseudized with 0 coefficients 


     PseudoPot. # 3 for Zr read from file:
     ./Zr.upf
     MD5 check sum: 10be9e9715c592225794718718b87d8f
     Pseudo is Projector augmented-wave + core cor, Zval = 12.0
     Generated using ATOMPAW code
     Shape of augmentation charge: BESSEL
     Using radial grid of 2342 points,  6 beta functions with: 
                l(1) =   0
                l(2) =   0
                l(3) =   1
                l(4) =   1
                l(5) =   2
                l(6) =   2
     Q(r) pseudized with 0 coefficients 


     PseudoPot. # 4 for Sn read from file:
     ./Sn.upf
     MD5 check sum: f8d5c2bd65c7f969f3af92fc3a9f2821
     Pseudo is Projector augmented-wave + core cor, Zval = 14.0
     Generated using ATOMPAW code
     Shape of augmentation charge: BESSEL
     Using radial grid of 2342 points,  6 beta functions with: 
                l(1) =   0
                l(2) =   0
                l(3) =   1
                l(4) =   1
                l(5) =   2
                l(6) =   2
     Q(r) pseudized with 0 coefficients 


     PseudoPot. # 5 for O  read from file:
     ./O.upf
     MD5 check sum: 45fbb1c0d1f8837f1e386a2947d3aa26
     Pseudo is Projector augmented-wave + core cor, Zval =  6.0
     Generated using ATOMPAW code
     Shape of augmentation charge: SINC**2
     Using radial grid of 2342 points,  4 beta functions with: 
                l(1) =   0
                l(2) =   0
                l(3) =   1
                l(4) =   1
     Q(r) pseudized with 0 coefficients 


     atomic species   valence    mass     pseudopotential
        Na             9.00    22.96000     Na( 1.00)
        K              9.00    39.09800     K ( 1.00)
        Zr            12.00    91.22400     Zr( 1.00)
        Sn            14.00   118.71000     Sn( 1.00)
        O              6.00    15.99900     O ( 1.00)

      2 Sym. Ops. (no inversion) found



   Cartesian axes

     site n.     atom                  positions (alat units)
         1           Na  tau(   1) = (   0.0000000   0.0000000   0.0000000  )
         2           K   tau(   2) = (   0.5000000   0.5000000   0.0000000  )
         3           Na  tau(   3) = (   0.5000000   0.0000000   0.5000000  )
         4           K   tau(   4) = (   0.0000000   0.5000000   0.5000000  )
         5           Sn  tau(   5) = (   0.2500000   0.2500000   0.2500000  )
         6           Zr  tau(   6) = (   0.7500000   0.7500000   0.7500000  )
         7           O   tau(   7) = (   0.2500000   0.0000000   0.0000000  )
         8           O   tau(   8) = (   0.7500000   0.0000000   0.0000000  )
         9           O   tau(   9) = (   0.0000000   0.2500000   0.0000000  )
        10           O   tau(  10) = (   0.0000000   0.7500000   0.0000000  )
        11           O   tau(  11) = (   0.0000000   0.0000000   0.2500000  )
        12           O   tau(  12) = (   0.0000000   0.0000000   0.7500000  )

     number of k points=    39
                       cart. coord. in units 2pi/alat
        k(    1) = (   0.0000000   0.0000000   0.0000000), wk =   0.0160000
        k(    2) = (   0.0000000   0.0000000   0.2000000), wk =   0.0640000
        k(    3) = (   0.0000000   0.0000000   0.4000000), wk =   0.0640000
        k(    4) = (   0.0000000   0.2000000   0.2000000), wk =   0.0640000
        k(    5) = (   0.0000000   0.2000000   0.4000000), wk =   0.0640000
        k(    6) = (   0.0000000   0.4000000   0.4000000), wk =   0.0640000
        k(    7) = (   0.2000000   0.2000000   0.2000000), wk =   0.0320000
        k(    8) = (   0.2000000   0.2000000   0.4000000), wk =   0.0640000
        k(    9) = (   0.2000000   0.4000000   0.4000000), wk =   0.0640000
        k(   10) = (   0.4000000   0.4000000   0.4000000), wk =   0.0320000
        k(   11) = (   0.0000000   0.2000000   0.0000000), wk =   0.0320000
        k(   12) = (   0.0000000   0.4000000   0.0000000), wk =   0.0320000
        k(   13) = (   0.0000000   0.2000000  -0.2000000), wk =   0.0640000
        k(   14) = (   0.2000000   0.0000000  -0.2000000), wk =   0.0320000
        k(   15) = (  -0.2000000   0.0000000  -0.2000000), wk =   0.0320000
        k(   16) = (   0.0000000   0.2000000  -0.4000000), wk =   0.0640000
        k(   17) = (   0.2000000   0.0000000  -0.4000000), wk =   0.0640000
        k(   18) = (  -0.2000000   0.0000000  -0.4000000), wk =   0.0640000
        k(   19) = (   0.0000000   0.4000000   0.2000000), wk =   0.0640000
        k(   20) = (   0.0000000   0.4000000  -0.2000000), wk =   0.0640000
        k(   21) = (   0.0000000   0.4000000  -0.4000000), wk =   0.0640000
        k(   22) = (   0.4000000   0.0000000  -0.4000000), wk =   0.0320000
        k(   23) = (  -0.4000000   0.0000000  -0.4000000), wk =   0.0320000
        k(   24) = (  -0.2000000   0.2000000  -0.2000000), wk =   0.0320000
        k(   25) = (   0.2000000  -0.2000000  -0.2000000), wk =   0.0640000
        k(   26) = (  -0.2000000   0.2000000  -0.4000000), wk =   0.0640000
        k(   27) = (   0.2000000  -0.2000000  -0.4000000), wk =   0.0640000
        k(   28) = (   0.2000000   0.2000000  -0.4000000), wk =   0.0640000
        k(   29) = (  -0.2000000   0.4000000   0.2000000), wk =   0.0640000
        k(   30) = (  -0.2000000  -0.4000000  -0.2000000), wk =   0.0320000
        k(   31) = (   0.2000000  -0.4000000   0.2000000), wk =   0.0320000
        k(   32) = (  -0.2000000   0.4000000  -0.4000000), wk =   0.0640000
        k(   33) = (   0.2000000  -0.4000000  -0.4000000), wk =   0.0640000
        k(   34) = (   0.4000000   0.2000000  -0.4000000), wk =   0.0640000
        k(   35) = (  -0.4000000  -0.2000000  -0.4000000), wk =   0.0320000
        k(   36) = (   0.4000000  -0.2000000   0.4000000), wk =   0.0320000
        k(   37) = (  -0.4000000   0.4000000   0.2000000), wk =   0.0640000
        k(   38) = (  -0.4000000   0.4000000  -0.4000000), wk =   0.0320000
        k(   39) = (   0.4000000  -0.4000000  -0.4000000), wk =   0.0640000

     Dense  grid:   253119 G-vectors     FFT dimensions: (  80,  80,  80)

     Smooth grid:    89199 G-vectors     FFT dimensions: (  60,  60,  60)

     Estimated max dynamical RAM per process >      90.54 MB

     Estimated total dynamical RAM >       1.41 GB

     Check: negative core charge=   -0.000001

     Initial potential from superposition of free atoms

     starting charge      97.9418, renormalised to      98.0000
     Starting wfcs are  126 randomized atomic wfcs
     Checking if some PAW data can be deallocated... 

     total cpu time spent up to now is        8.3 secs

     per-process dynamical memory:    77.5 Mb

     Self-consistent Calculation

     iteration #  1     ecut=    60.00 Ry     beta= 0.70
     Davidson diagonalization with overlap
     ethr =  1.00E-02,  avg # of iterations =  2.0

     total cpu time spent up to now is       13.3 secs

     total energy              =   -1432.43769366 Ry
     estimated scf accuracy    <      12.35370785 Ry

     iteration #  2     ecut=    60.00 Ry     beta= 0.70
     Davidson diagonalization with overlap
     ethr =  1.00E-02,  avg # of iterations =  8.2

     total cpu time spent up to now is       24.8 secs

     total energy              =   -1422.84436748 Ry
     estimated scf accuracy    <     209.68520701 Ry

     iteration #  3     ecut=    60.00 Ry     beta= 0.70
     Davidson diagonalization with overlap
     ethr =  1.00E-02,  avg # of iterations =  7.3

     total cpu time spent up to now is       36.9 secs

     total energy              =   -1440.50886542 Ry
     estimated scf accuracy    <       2.85902348 Ry

     iteration #  4     ecut=    60.00 Ry     beta= 0.70
     Davidson diagonalization with overlap
     ethr =  2.92E-03,  avg # of iterations =  5.4

     total cpu time spent up to now is       44.5 secs

     total energy              =   -1440.80868323 Ry
     estimated scf accuracy    <       1.22107105 Ry

     iteration #  5     ecut=    60.00 Ry     beta= 0.70
     Davidson diagonalization with overlap
     ethr =  1.25E-03,  avg # of iterations =  4.7

     total cpu time spent up to now is       51.3 secs

     total energy              =   -1440.87579679 Ry
     estimated scf accuracy    <       0.55877241 Ry

     iteration #  6     ecut=    60.00 Ry     beta= 0.70
     Davidson diagonalization with overlap
     ethr =  5.70E-04,  avg # of iterations =  2.8

     total cpu time spent up to now is       56.6 secs

     total energy              =   -1440.84616565 Ry
     estimated scf accuracy    <       0.36206054 Ry

     iteration #  7     ecut=    60.00 Ry     beta= 0.70
     Davidson diagonalization with overlap
     ethr =  3.69E-04,  avg # of iterations =  4.2

     total cpu time spent up to now is       62.6 secs

     total energy              =   -1440.82406586 Ry
     estimated scf accuracy    <       0.13669614 Ry

     iteration #  8     ecut=    60.00 Ry     beta= 0.70
     Davidson diagonalization with overlap
     ethr =  1.39E-04,  avg # of iterations =  8.1

     total cpu time spent up to now is       71.9 secs

     total energy              =   -1440.84322995 Ry
     estimated scf accuracy    <       0.30807522 Ry

     iteration #  9     ecut=    60.00 Ry     beta= 0.70
     Davidson diagonalization with overlap
     ethr =  1.39E-04,  avg # of iterations =  4.4

     total cpu time spent up to now is       78.1 secs

     total energy              =   -1440.84207732 Ry
     estimated scf accuracy    <       0.11829432 Ry

     iteration # 10     ecut=    60.00 Ry     beta= 0.70
     Davidson diagonalization with overlap
     ethr =  1.21E-04,  avg # of iterations =  2.1

     total cpu time spent up to now is       83.1 secs

     total energy              =   -1440.83258948 Ry
     estimated scf accuracy    <       0.07437971 Ry

     iteration # 11     ecut=    60.00 Ry     beta= 0.70
     Davidson diagonalization with overlap
     ethr =  7.59E-05,  avg # of iterations =  6.7

     total cpu time spent up to now is       90.7 secs

     total energy              =   -1440.84302683 Ry
     estimated scf accuracy    <       0.02834611 Ry

     iteration # 12     ecut=    60.00 Ry     beta= 0.70
     Davidson diagonalization with overlap
     ethr =  2.89E-05,  avg # of iterations =  4.9

     total cpu time spent up to now is       97.0 secs

     total energy              =   -1440.84119496 Ry
     estimated scf accuracy    <       0.02488151 Ry

     iteration # 13     ecut=    60.00 Ry     beta= 0.70
     Davidson diagonalization with overlap
     ethr =  2.54E-05,  avg # of iterations =  5.9

     total cpu time spent up to now is      104.0 secs

     total energy              =   -1440.84259859 Ry
     estimated scf accuracy    <       0.00891409 Ry

     iteration # 14     ecut=    60.00 Ry     beta= 0.70
     Davidson diagonalization with overlap
     ethr =  9.10E-06,  avg # of iterations =  3.1

     total cpu time spent up to now is      109.5 secs

     total energy              =   -1440.84168173 Ry
     estimated scf accuracy    <       0.00561687 Ry

     iteration # 15     ecut=    60.00 Ry     beta= 0.70
     Davidson diagonalization with overlap
     ethr =  5.73E-06,  avg # of iterations =  7.2

     total cpu time spent up to now is      118.2 secs

     total energy              =   -1440.84331194 Ry
     estimated scf accuracy    <       0.01295579 Ry

     iteration # 16     ecut=    60.00 Ry     beta= 0.70
     Davidson diagonalization with overlap
     ethr =  5.73E-06,  avg # of iterations =  1.0

     total cpu time spent up to now is      122.8 secs

     total energy              =   -1440.84306982 Ry
     estimated scf accuracy    <       0.01075674 Ry

     iteration # 17     ecut=    60.00 Ry     beta= 0.70
     Davidson diagonalization with overlap
     ethr =  5.73E-06,  avg # of iterations =  1.0

     total cpu time spent up to now is      127.4 secs

     total energy              =   -1440.84128501 Ry
     estimated scf accuracy    <       0.00947964 Ry

     iteration # 18     ecut=    60.00 Ry     beta= 0.70
     Davidson diagonalization with overlap
     ethr =  5.73E-06,  avg # of iterations =  6.6

     total cpu time spent up to now is      135.9 secs

     total energy              =   -1440.84282452 Ry
     estimated scf accuracy    <       0.00949052 Ry

     iteration # 19     ecut=    60.00 Ry     beta= 0.70
     Davidson diagonalization with overlap
     ethr =  5.73E-06,  avg # of iterations =  1.2

     total cpu time spent up to now is      140.5 secs

     total energy              =   -1440.84214967 Ry
     estimated scf accuracy    <       0.00596362 Ry

     iteration # 20     ecut=    60.00 Ry     beta= 0.70
     Davidson diagonalization with overlap
     ethr =  5.73E-06,  avg # of iterations =  7.2

     total cpu time spent up to now is      148.3 secs

     total energy              =   -1440.84280795 Ry
     estimated scf accuracy    <       0.00108438 Ry

     iteration # 21     ecut=    60.00 Ry     beta= 0.70
     Davidson diagonalization with overlap
     c_bands:  1 eigenvalues not converged
     ethr =  1.11E-06,  avg # of iterations =  9.6

     total cpu time spent up to now is      157.0 secs

     total energy              =   -1440.84291091 Ry
     estimated scf accuracy    <       0.00002534 Ry

     iteration # 22     ecut=    60.00 Ry     beta= 0.70
     Davidson diagonalization with overlap
     ethr =  2.59E-08,  avg # of iterations =  7.6

     total cpu time spent up to now is      168.0 secs

     total energy              =   -1440.84291386 Ry
     estimated scf accuracy    <       0.00061217 Ry

     iteration # 23     ecut=    60.00 Ry     beta= 0.70
     Davidson diagonalization with overlap
     ethr =  2.59E-08,  avg # of iterations =  6.7

     total cpu time spent up to now is      177.2 secs

     total energy              =   -1440.84290840 Ry
     estimated scf accuracy    <       0.00010381 Ry

     iteration # 24     ecut=    60.00 Ry     beta= 0.70
     Davidson diagonalization with overlap
     ethr =  2.59E-08,  avg # of iterations =  7.0

     total cpu time spent up to now is      186.5 secs

     total energy              =   -1440.84292582 Ry
     estimated scf accuracy    <       0.00005799 Ry

     iteration # 25     ecut=    60.00 Ry     beta= 0.70
     Davidson diagonalization with overlap
     ethr =  2.59E-08,  avg # of iterations =  1.0

     total cpu time spent up to now is      191.1 secs

     total energy              =   -1440.84292131 Ry
     estimated scf accuracy    <       0.00004907 Ry

     iteration # 26     ecut=    60.00 Ry     beta= 0.70
     Davidson diagonalization with overlap
     ethr =  2.59E-08,  avg # of iterations =  7.1

     total cpu time spent up to now is      198.6 secs

     total energy              =   -1440.84292392 Ry
     estimated scf accuracy    <       0.00000160 Ry

     iteration # 27     ecut=    60.00 Ry     beta= 0.70
     Davidson diagonalization with overlap
     ethr =  1.63E-09,  avg # of iterations =  5.8

     total cpu time spent up to now is      206.0 secs

     total energy              =   -1440.84292414 Ry
     estimated scf accuracy    <       0.00000059 Ry

     iteration # 28     ecut=    60.00 Ry     beta= 0.70
     Davidson diagonalization with overlap
     ethr =  6.02E-10,  avg # of iterations =  1.4

     total cpu time spent up to now is      210.7 secs

     total energy              =   -1440.84292408 Ry
     estimated scf accuracy    <       0.00000055 Ry

     iteration # 29     ecut=    60.00 Ry     beta= 0.70
     Davidson diagonalization with overlap
     ethr =  5.66E-10,  avg # of iterations =  5.9

     total cpu time spent up to now is      219.2 secs

     total energy              =   -1440.84292410 Ry
     estimated scf accuracy    <       0.00000178 Ry

     iteration # 30     ecut=    60.00 Ry     beta= 0.70
     Davidson diagonalization with overlap
     ethr =  5.66E-10,  avg # of iterations =  6.5

     total cpu time spent up to now is      226.6 secs

     total energy              =   -1440.84292414 Ry
     estimated scf accuracy    <       0.00000026 Ry

     iteration # 31     ecut=    60.00 Ry     beta= 0.70
     Davidson diagonalization with overlap
     ethr =  2.63E-10,  avg # of iterations =  1.3

     total cpu time spent up to now is      231.3 secs

     total energy              =   -1440.84292415 Ry
     estimated scf accuracy    <       0.00000022 Ry

     iteration # 32     ecut=    60.00 Ry     beta= 0.70
     Davidson diagonalization with overlap
     ethr =  2.27E-10,  avg # of iterations =  1.3

     total cpu time spent up to now is      235.9 secs

     total energy              =   -1440.84292414 Ry
     estimated scf accuracy    <       0.00000021 Ry

     iteration # 33     ecut=    60.00 Ry     beta= 0.70
     Davidson diagonalization with overlap
     ethr =  2.10E-10,  avg # of iterations =  1.0

     total cpu time spent up to now is      240.5 secs

     total energy              =   -1440.84292413 Ry
     estimated scf accuracy    <       0.00000018 Ry

     iteration # 34     ecut=    60.00 Ry     beta= 0.70
     Davidson diagonalization with overlap
     ethr =  1.80E-10,  avg # of iterations =  1.5

     total cpu time spent up to now is      245.3 secs

     total energy              =   -1440.84292414 Ry
     estimated scf accuracy    <       0.00000010 Ry

     iteration # 35     ecut=    60.00 Ry     beta= 0.70
     Davidson diagonalization with overlap
     c_bands:  1 eigenvalues not converged
     ethr =  1.04E-10,  avg # of iterations =  7.1

     total cpu time spent up to now is      252.5 secs

     total energy              =   -1440.84292414 Ry
     estimated scf accuracy    <       0.00000004 Ry

     iteration # 36     ecut=    60.00 Ry     beta= 0.70
     Davidson diagonalization with overlap
     ethr =  4.35E-11,  avg # of iterations =  6.7

     total cpu time spent up to now is      260.6 secs

     total energy              =   -1440.84292414 Ry
     estimated scf accuracy    <       0.00000003 Ry

     iteration # 37     ecut=    60.00 Ry     beta= 0.70
     Davidson diagonalization with overlap
     ethr =  3.48E-11,  avg # of iterations =  4.1

     total cpu time spent up to now is      266.8 secs

     total energy              =   -1440.84292415 Ry
     estimated scf accuracy    <       0.00000003 Ry

     iteration # 38     ecut=    60.00 Ry     beta= 0.70
     Davidson diagonalization with overlap
     ethr =  3.13E-11,  avg # of iterations =  1.5

     total cpu time spent up to now is      271.6 secs

     total energy              =   -1440.84292414 Ry
     estimated scf accuracy    <       0.00000004 Ry

     iteration # 39     ecut=    60.00 Ry     beta= 0.70
     Davidson diagonalization with overlap
     ethr =  3.13E-11,  avg # of iterations =  6.5

     total cpu time spent up to now is      279.4 secs

     total energy              =   -1440.84292414 Ry
     estimated scf accuracy    <       0.00000003 Ry

     iteration # 40     ecut=    60.00 Ry     beta= 0.70
     Davidson diagonalization with overlap
     ethr =  2.87E-11,  avg # of iterations =  5.4

     total cpu time spent up to now is      285.9 secs

     total energy              =   -1440.84292414 Ry
     estimated scf accuracy    <          6.3E-09 Ry

     iteration # 41     ecut=    60.00 Ry     beta= 0.70
     Davidson diagonalization with overlap
     ethr =  6.47E-12,  avg # of iterations =  6.2

     total cpu time spent up to now is      293.0 secs

     total energy              =   -1440.84292414 Ry
     estimated scf accuracy    <          1.6E-09 Ry

     iteration # 42     ecut=    60.00 Ry     beta= 0.70
     Davidson diagonalization with overlap
     ethr =  1.60E-12,  avg # of iterations =  7.5

     total cpu time spent up to now is      301.7 secs

     total energy              =   -1440.84292414 Ry
     estimated scf accuracy    <          6.6E-10 Ry

     iteration # 43     ecut=    60.00 Ry     beta= 0.70
     Davidson diagonalization with overlap
     ethr =  6.70E-13,  avg # of iterations =  7.8

     total cpu time spent up to now is      310.0 secs

     total energy              =   -1440.84292414 Ry
     estimated scf accuracy    <          3.9E-10 Ry

     iteration # 44     ecut=    60.00 Ry     beta= 0.70
     Davidson diagonalization with overlap
     ethr =  4.01E-13,  avg # of iterations =  6.4

     total cpu time spent up to now is      317.2 secs

     total energy              =   -1440.84292414 Ry
     estimated scf accuracy    <          1.1E-10 Ry

     iteration # 45     ecut=    60.00 Ry     beta= 0.70
     Davidson diagonalization with overlap
     c_bands:  1 eigenvalues not converged
     ethr =  1.09E-13,  avg # of iterations =  5.2

     total cpu time spent up to now is      323.8 secs

     End of self-consistent calculation

          k = 0.0000 0.0000 0.0000 ( 11075 PWs)   bands (ev):

   -47.1269 -44.3667 -43.4830 -25.5684 -25.5498 -21.7562 -21.7313 -21.7261
   -19.1989 -18.9943 -18.9534 -18.4646 -18.2280 -18.2231 -15.5681 -15.5156
   -15.3762 -15.3604 -15.2820 -12.3552 -10.1913 -10.1543  -9.7395  -9.4097
    -8.9273  -8.9224  -8.8395  -8.7628  -8.7621  -8.6410  -8.6159  -0.8961
     1.3713   1.3858   1.5592   2.6471   2.7080   2.7345   3.1042   3.4206
     3.5063   4.2050   4.2762   4.7640   5.6333   5.7937   6.0646   6.6501
     6.6911

          k = 0.0000 0.0000 0.2000 ( 11172 PWs)   bands (ev):

   -47.1269 -44.3667 -43.4830 -25.5710 -25.5472 -21.7563 -21.7314 -21.7262
   -19.1987 -18.9944 -18.9535 -18.4651 -18.2288 -18.2234 -15.5685 -15.5153
   -15.3763 -15.3604 -15.2818 -12.3470 -10.1631 -10.1377  -9.7220  -9.4422
    -8.9432  -8.9090  -8.8480  -8.7853  -8.7596  -8.6676  -8.6161  -0.8979
     1.3549   1.3616   1.6177   2.6014   2.7370   2.7870   3.1557   3.4557
     3.5133   4.2238   4.4235   4.7808   5.5724   5.7110   6.0368   6.4649
     6.6501

          k = 0.0000 0.0000 0.4000 ( 11172 PWs)   bands (ev):

   -47.1269 -44.3667 -43.4830 -25.5743 -25.5438 -21.7565 -21.7316 -21.7263
   -19.1984 -18.9945 -18.9534 -18.4659 -18.2301 -18.2238 -15.5691 -15.5148
   -15.3763 -15.3604 -15.2815 -12.3341 -10.1264 -10.0940  -9.6700  -9.5196
    -8.9879  -8.8971  -8.8611  -8.8103  -8.7520  -8.7109  -8.6086  -0.9022
     1.3202   1.3491   1.6774   2.6465   2.7844   2.8948   3.0954   3.4894
     3.5420   4.2267   4.8105   4.8786   5.3860   5.6058   5.8250   6.2184
     6.6041

          k = 0.0000 0.2000 0.2000 ( 11178 PWs)   bands (ev):

   -47.1269 -44.3667 -43.4830 -25.5710 -25.5472 -21.7565 -21.7315 -21.7262
   -19.1988 -18.9945 -18.9535 -18.4652 -18.2286 -18.2244 -15.5691 -15.5150
   -15.3764 -15.3605 -15.2810 -12.3457 -10.1361 -10.0875  -9.6949  -9.5049
    -8.9691  -8.9080  -8.8667  -8.8218  -8.7654  -8.6349  -8.6244  -0.8819
     1.3338   1.3527   1.6063   2.6322   2.7391   2.8080   3.2609   3.4783
     3.5341   4.3446   4.4574   4.8005   5.4900   5.6056   6.0781   6.2758
     6.5059

          k = 0.0000 0.2000 0.4000 ( 11176 PWs)   bands (ev):

   -47.1269 -44.3667 -43.4830 -25.5742 -25.5439 -21.7566 -21.7318 -21.7264
   -19.1984 -18.9945 -18.9534 -18.4662 -18.2301 -18.2248 -15.5691 -15.5145
   -15.3764 -15.3604 -15.2814 -12.3251 -10.1074 -10.0623  -9.6658  -9.5475
    -9.0207  -8.9175  -8.8613  -8.8283  -8.7733  -8.6569  -8.6196  -0.9044
     1.2924   1.3323   1.7085   2.7188   2.7860   2.8793   3.1450   3.5088
     3.5742   4.3636   4.8199   4.8937   5.3311   5.5147   5.8212   6.1977
     6.5044

          k = 0.0000 0.4000 0.4000 ( 11190 PWs)   bands (ev):

   -47.1269 -44.3667 -43.4830 -25.5741 -25.5440 -21.7564 -21.7321 -21.7266
   -19.1984 -18.9945 -18.9534 -18.4667 -18.2300 -18.2265 -15.5688 -15.5140
   -15.3764 -15.3603 -15.2820 -12.3046 -10.1215  -9.9808  -9.6938  -9.5630
    -9.0468  -8.9713  -8.8727  -8.8102  -8.7584  -8.6725  -8.6097  -0.9278
     1.2459   1.3156   1.8334   2.7776   2.8066   2.9044   3.1198   3.5397
     3.6310   4.6939   4.7570   4.8993   5.3150   5.4418   5.6860   5.9636
     6.4591

          k = 0.2000 0.2000 0.2000 ( 11200 PWs)   bands (ev):

   -47.1269 -44.3667 -43.4830 -25.5702 -25.5480 -21.7567 -21.7316 -21.7263
   -19.1984 -18.9945 -18.9535 -18.4657 -18.2292 -18.2250 -15.5691 -15.5148
   -15.3764 -15.3606 -15.2808 -12.3388 -10.0865 -10.0716  -9.7046  -9.5170
    -9.0025  -8.8971  -8.8801  -8.8494  -8.7961  -8.6297  -8.6044  -0.8829
     1.3131   1.3280   1.6362   2.6555   2.7722   2.8197   3.3682   3.5227
     3.5322   4.4183   4.4318   4.8342   5.4549   5.5471   6.0487   6.3625
     6.5078

          k = 0.2000 0.2000 0.4000 ( 11163 PWs)   bands (ev):

   -47.1269 -44.3667 -43.4830 -25.5730 -25.5451 -21.7568 -21.7317 -21.7265
   -19.1984 -18.9944 -18.9534 -18.4664 -18.2305 -18.2251 -15.5689 -15.5146
   -15.3764 -15.3605 -15.2810 -12.3189 -10.0748 -10.0226  -9.6847  -9.5589
    -9.0528  -8.9124  -8.8687  -8.8379  -8.8160  -8.6539  -8.6017  -0.9162
     1.2643   1.3082   1.7929   2.7576   2.7894   2.8626   3.2696   3.5529
     3.5636   4.4398   4.7718   4.8787   5.3614   5.5028   5.7422   6.2186
     6.5325

          k = 0.2000 0.4000 0.4000 ( 11170 PWs)   bands (ev):

   -47.1269 -44.3667 -43.4830 -25.5729 -25.5452 -21.7565 -21.7320 -21.7267
   -19.1985 -18.9944 -18.9534 -18.4671 -18.2305 -18.2269 -15.5683 -15.5143
   -15.3763 -15.3602 -15.2822 -12.2912 -10.0846  -9.9768  -9.7372  -9.5320
    -9.0680  -8.9905  -8.8736  -8.8267  -8.8049  -8.6310  -8.6012  -0.9624
     1.2266   1.2699   1.9407   2.7914   2.8364   2.8667   3.3019   3.5712
     3.6231   4.7012   4.7482   4.9311   5.3753   5.4859   5.6155   5.9569
     6.4328

          k = 0.4000 0.4000 0.4000 ( 11215 PWs)   bands (ev):

   -47.1269 -44.3667 -43.4830 -25.5730 -25.5451 -21.7565 -21.7321 -21.7269
   -19.1990 -18.9945 -18.9535 -18.4679 -18.2317 -18.2271 -15.5673 -15.5146
   -15.3763 -15.3602 -15.2828 -12.2630 -10.0325 -10.0134  -9.7756  -9.4725
    -9.0894  -9.0332  -8.9296  -8.8080  -8.8021  -8.6305  -8.5858  -1.0149
     1.1886   1.2175   2.0680   2.8078   2.8778   2.8832   3.4967   3.6122
     3.6305   4.8158   4.8902   4.9810   5.4329   5.5156   5.5374   5.9597
     6.0005

          k = 0.0000 0.2000 0.0000 ( 11172 PWs)   bands (ev):

   -47.1269 -44.3667 -43.4830 -25.5684 -25.5498 -21.7563 -21.7314 -21.7262
   -19.1990 -18.9945 -18.9535 -18.4648 -18.2279 -18.2241 -15.5687 -15.5152
   -15.3763 -15.3605 -15.2815 -12.3525 -10.1739 -10.1103  -9.7247  -9.4507
    -8.9471  -8.9186  -8.8282  -8.7890  -8.7533  -8.6581  -8.6337  -0.8887
     1.3591   1.3768   1.5950   2.6258   2.7384   2.7470   3.1829   3.4405
     3.5170   4.2812   4.3621   4.7755   5.5468   5.7191   5.9853   6.4653
     6.6526

          k = 0.0000 0.4000 0.0000 ( 11172 PWs)   bands (ev):

   -47.1269 -44.3667 -43.4830 -25.5683 -25.5499 -21.7564 -21.7317 -21.7263
   -19.1991 -18.9944 -18.9535 -18.4650 -18.2275 -18.2257 -15.5695 -15.5145
   -15.3765 -15.3606 -15.2807 -12.3485 -10.1421 -10.0187  -9.7115  -9.5170
    -9.0114  -8.9075  -8.8370  -8.7850  -8.7380  -8.7300  -8.6236  -0.8780
     1.3405   1.3736   1.6185   2.6856   2.7921   2.8286   3.1224   3.5034
     3.5267   4.2879   4.8029   4.8137   5.3901   5.6031   5.7692   5.9867
     6.6062

          k = 0.0000 0.2000-0.2000 ( 11178 PWs)   bands (ev):

   -47.1269 -44.3667 -43.4830 -25.5710 -25.5472 -21.7563 -21.7316 -21.7263
   -19.1988 -18.9945 -18.9534 -18.4654 -18.2287 -18.2244 -15.5684 -15.5149
   -15.3763 -15.3603 -15.2822 -12.3361 -10.1725 -10.1029  -9.7240  -9.4504
    -8.9657  -8.9063  -8.8158  -8.7709  -8.7530  -8.7070  -8.6507  -0.9142
     1.3403   1.3473   1.7240   2.6738   2.7178   2.7827   3.1196   3.4639
     3.5331   4.3405   4.4596   4.7902   5.4997   5.7008   5.9112   6.5017
     6.5974

          k = 0.2000 0.0000-0.2000 ( 11178 PWs)   bands (ev):

   -47.1269 -44.3667 -43.4830 -25.5741 -25.5441 -21.7565 -21.7315 -21.7262
   -19.1990 -18.9944 -18.9534 -18.4653 -18.2296 -18.2234 -15.5691 -15.5152
   -15.3763 -15.3605 -15.2814 -12.3398 -10.1401 -10.1100  -9.6889  -9.4963
    -8.9721  -8.8971  -8.8506  -8.7767  -8.7739  -8.6830  -8.6312  -0.9128
     1.3271   1.3451   1.7379   2.6663   2.6824   2.8354   3.1374   3.4803
     3.5315   4.3120   4.4768   4.7927   5.4852   5.6661   5.9489   6.4941
     6.6151

          k =-0.2000 0.0000-0.2000 ( 11178 PWs)   bands (ev):

   -47.1269 -44.3667 -43.4830 -25.5702 -25.5480 -21.7565 -21.7314 -21.7263
   -19.1984 -18.9945 -18.9535 -18.4657 -18.2294 -18.2239 -15.5682 -15.5151
   -15.3763 -15.3604 -15.2818 -12.3386 -10.1327 -10.1271  -9.7284  -9.4436
    -8.9597  -8.8953  -8.8535  -8.7968  -8.7656  -8.6799  -8.6385  -0.8919
     1.3211   1.3560   1.6351   2.6205   2.7667   2.7867   3.2108   3.5008
     3.5206   4.3549   4.4571   4.8028   5.5335   5.6310   6.1240   6.2991
     6.4918

          k = 0.0000 0.2000-0.4000 ( 11176 PWs)   bands (ev):

   -47.1269 -44.3667 -43.4830 -25.5742 -25.5439 -21.7564 -21.7318 -21.7265
   -19.1984 -18.9945 -18.9534 -18.4663 -18.2301 -18.2248 -15.5687 -15.5145
   -15.3763 -15.3603 -15.2822 -12.3191 -10.1403 -10.0618  -9.7013  -9.4969
    -9.0127  -8.8904  -8.8711  -8.7924  -8.7756  -8.6853  -8.6365  -0.9238
     1.2943   1.3308   1.7916   2.6979   2.7752   2.9140   3.0417   3.5109
     3.5754   4.3625   4.7908   4.8581   5.3842   5.5788   5.7326   6.2722
     6.5572

          k = 0.2000 0.0000-0.4000 ( 11176 PWs)   bands (ev):

   -47.1269 -44.3667 -43.4830 -25.5751 -25.5430 -21.7567 -21.7316 -21.7264
   -19.1988 -18.9944 -18.9534 -18.4660 -18.2307 -18.2238 -15.5691 -15.5149
   -15.3764 -15.3605 -15.2810 -12.3270 -10.1087 -10.0599  -9.6508  -9.5580
    -9.0185  -8.8952  -8.8517  -8.7996  -8.7575  -8.7256  -8.6377  -0.9170
     1.2848   1.3368   1.8008   2.6934   2.7621   2.9453   3.0626   3.5219
     3.5569   4.3555   4.8139   4.8533   5.3352   5.5822   5.7463   6.2541
     6.5655

          k =-0.2000 0.0000-0.4000 ( 11176 PWs)   bands (ev):

   -47.1269 -44.3667 -43.4830 -25.5731 -25.5451 -21.7567 -21.7315 -21.7264
   -19.1984 -18.9945 -18.9534 -18.4662 -18.2306 -18.2240 -15.5686 -15.5149
   -15.3764 -15.3605 -15.2813 -12.3263 -10.1108 -10.0637  -9.6961  -9.5045
    -9.0146  -8.8830  -8.8622  -8.8061  -8.7581  -8.7227  -8.6417  -0.9043
     1.2790   1.3437   1.7330   2.7061   2.8020   2.8608   3.1379   3.5150
     3.5671   4.3738   4.8331   4.8579   5.3650   5.5269   5.8249   6.2268
     6.4899

          k = 0.0000 0.4000 0.2000 ( 11176 PWs)   bands (ev):

   -47.1269 -44.3667 -43.4830 -25.5708 -25.5473 -21.7565 -21.7318 -21.7264
   -19.1988 -18.9945 -18.9534 -18.4656 -18.2284 -18.2261 -15.5694 -15.5144
   -15.3764 -15.3605 -15.2810 -12.3341 -10.1207 -10.0072  -9.6983  -9.5450
    -9.0320  -8.9044  -8.8726  -8.8273  -8.7517  -8.6739  -8.6179  -0.8896
     1.3049   1.3435   1.6745   2.7508   2.7884   2.8414   3.1533   3.5164
     3.5718   4.4201   4.7997   4.8340   5.3505   5.5112   5.7711   6.0466
     6.4603

          k = 0.0000 0.4000-0.2000 ( 11176 PWs)   bands (ev):

   -47.1269 -44.3667 -43.4830 -25.5708 -25.5473 -21.7564 -21.7318 -21.7265
   -19.1988 -18.9945 -18.9534 -18.4658 -18.2285 -18.2261 -15.5689 -15.5143
   -15.3764 -15.3604 -15.2817 -12.3281 -10.1468 -10.0182  -9.7107  -9.5171
    -9.0197  -8.8959  -8.8442  -8.8074  -8.7574  -8.6937  -8.6430  -0.9092
     1.3074   1.3410   1.7542   2.7232   2.7724   2.8990   3.0547   3.5082
     3.5621   4.4029   4.7830   4.8358   5.3750   5.5884   5.6791   6.1360
     6.5383

          k = 0.0000 0.4000-0.4000 ( 11190 PWs)   bands (ev):

   -47.1269 -44.3667 -43.4830 -25.5741 -25.5440 -21.7563 -21.7321 -21.7267
   -19.1984 -18.9945 -18.9534 -18.4668 -18.2301 -18.2265 -15.5686 -15.5140
   -15.3763 -15.3602 -15.2825 -12.3008 -10.1430  -9.9816  -9.7024  -9.5476
    -9.0355  -8.9524  -8.8799  -8.7990  -8.7560  -8.6817  -8.6239  -0.9394
     1.2467   1.3150   1.8969   2.7222   2.7792   2.9561   3.0946   3.5372
     3.6154   4.5975   4.8283   4.8967   5.3360   5.4981   5.6388   5.9713
     6.4931

          k = 0.4000 0.0000-0.4000 ( 11190 PWs)   bands (ev):

   -47.1269 -44.3667 -43.4830 -25.5745 -25.5436 -21.7570 -21.7316 -21.7265
   -19.1990 -18.9944 -18.9534 -18.4665 -18.2316 -18.2239 -15.5687 -15.5150
   -15.3764 -15.3607 -15.2805 -12.3150 -10.0835  -9.9927  -9.6748  -9.5642
    -9.0722  -8.9005  -8.8345  -8.8004  -8.7593  -8.7454  -8.6760  -0.9286
     1.2357   1.3275   1.9191   2.6815   2.8222   2.9996   3.0909   3.5610
     3.5857   4.6053   4.8647   4.8861   5.2875   5.4822   5.6344   5.9581
     6.5182

          k =-0.4000 0.0000-0.4000 ( 11190 PWs)   bands (ev):

   -47.1269 -44.3667 -43.4830 -25.5732 -25.5449 -21.7570 -21.7316 -21.7265
   -19.1988 -18.9944 -18.9535 -18.4666 -18.2316 -18.2241 -15.5683 -15.5150
   -15.3764 -15.3606 -15.2807 -12.3145 -10.0860  -9.9935  -9.7049  -9.5292
    -9.0709  -8.8945  -8.8414  -8.7868  -8.7862  -8.7276  -8.6828  -0.9209
     1.2316   1.3313   1.8695   2.7207   2.8506   2.9103   3.1419   3.5472
     3.6047   4.6806   4.8199   4.8803   5.3593   5.3814   5.7022   5.9491
     6.5097

          k =-0.2000 0.2000-0.2000 ( 11200 PWs)   bands (ev):

   -47.1269 -44.3667 -43.4830 -25.5702 -25.5480 -21.7562 -21.7316 -21.7265
   -19.1984 -18.9945 -18.9535 -18.4662 -18.2295 -18.2249 -15.5676 -15.5148
   -15.3762 -15.3601 -15.2830 -12.3194 -10.1491 -10.1242  -9.7462  -9.4111
    -8.9724  -8.9046  -8.8086  -8.7697  -8.7458  -8.7184  -8.7000  -0.9320
     1.3039   1.3341   1.7892   2.6878   2.7567   2.7983   3.1113   3.5241
     3.5353   4.4809   4.4945   4.8105   5.4745   5.6747   5.9106   6.4011
     6.4814

          k = 0.2000-0.2000-0.2000 ( 11200 PWs)   bands (ev):

   -47.1269 -44.3667 -43.4830 -25.5740 -25.5441 -21.7564 -21.7317 -21.7263
   -19.1991 -18.9945 -18.9534 -18.4657 -18.2295 -18.2245 -15.5690 -15.5149
   -15.3763 -15.3605 -15.2814 -12.3299 -10.1419 -10.0708  -9.6745  -9.5308
    -8.9844  -8.9059  -8.8609  -8.7916  -8.7489  -8.7069  -8.6274  -0.9141
     1.3088   1.3237   1.7670   2.7198   2.7358   2.7895   3.1760   3.4923
     3.5512   4.4633   4.5198   4.8072   5.4160   5.6125   5.9396   6.3497
     6.5186

          k =-0.2000 0.2000-0.4000 ( 11163 PWs)   bands (ev):

   -47.1269 -44.3667 -43.4830 -25.5730 -25.5452 -21.7564 -21.7318 -21.7266
   -19.1984 -18.9945 -18.9534 -18.4669 -18.2307 -18.2251 -15.5678 -15.5146
   -15.3762 -15.3601 -15.2827 -12.3030 -10.1169 -10.0849  -9.7374  -9.4403
    -9.0135  -8.9141  -8.8607  -8.7839  -8.7558  -8.7161  -8.6699  -0.9436
     1.2532   1.3146   1.8446   2.7475   2.8044   2.9178   3.0600   3.5320
     3.6129   4.5146   4.8377   4.8906   5.3569   5.5384   5.7518   6.2392
     6.4164

          k = 0.2000-0.2000-0.4000 ( 11163 PWs)   bands (ev):

   -47.1269 -44.3667 -43.4830 -25.5750 -25.5431 -21.7565 -21.7318 -21.7265
   -19.1988 -18.9944 -18.9533 -18.4665 -18.2307 -18.2248 -15.5686 -15.5147
   -15.3763 -15.3604 -15.2817 -12.3096 -10.0958 -10.0675  -9.6895  -9.5183
    -9.0189  -8.9431  -8.8551  -8.8000  -8.7522  -8.7131  -8.6363  -0.9329
     1.2567   1.3092   1.8263   2.7490   2.8126   2.9201   3.0966   3.5251
     3.6023   4.5086   4.8430   4.9256   5.3014   5.4814   5.7794   6.2000
     6.4340

          k = 0.2000 0.2000-0.4000 ( 11163 PWs)   bands (ev):

   -47.1269 -44.3667 -43.4830 -25.5750 -25.5431 -21.7566 -21.7318 -21.7265
   -19.1988 -18.9944 -18.9533 -18.4664 -18.2306 -18.2249 -15.5689 -15.5146
   -15.3764 -15.3604 -15.2814 -12.3133 -10.1094 -10.0244  -9.6627  -9.5696
    -9.0332  -8.9084  -8.8677  -8.8117  -8.7969  -8.6895  -8.6140  -0.9346
     1.2686   1.3017   1.8850   2.7231   2.7841   2.8853   3.1616   3.5385
     3.5756   4.4802   4.7882   4.8704   5.3209   5.5618   5.6870   6.2529
     6.5108

          k =-0.2000 0.4000 0.2000 ( 11163 PWs)   bands (ev):

   -47.1269 -44.3667 -43.4830 -25.5739 -25.5442 -21.7564 -21.7320 -21.7265
   -19.1991 -18.9944 -18.9533 -18.4661 -18.2292 -18.2262 -15.5690 -15.5143
   -15.3764 -15.3604 -15.2815 -12.3141 -10.1252 -10.0118  -9.6927  -9.5431
    -9.0413  -8.9138  -8.8655  -8.8178  -8.7760  -8.6633  -8.6319  -0.9167
     1.2732   1.3050   1.7885   2.7598   2.8181   2.9015   3.0890   3.5268
     3.6072   4.5738   4.8256   4.8630   5.3419   5.4681   5.7283   6.0938
     6.3647

          k =-0.2000-0.4000-0.2000 ( 11163 PWs)   bands (ev):

   -47.1269 -44.3667 -43.4830 -25.5701 -25.5481 -21.7566 -21.7318 -21.7265
   -19.1984 -18.9945 -18.9535 -18.4662 -18.2290 -18.2267 -15.5689 -15.5143
   -15.3764 -15.3604 -15.2814 -12.3201 -10.0856 -10.0006  -9.7299  -9.5295
    -9.0529  -8.9320  -8.8776  -8.8281  -8.7986  -8.6275  -8.6159  -0.9186
     1.2905   1.2965   1.7690   2.7752   2.8105   2.8449   3.2599   3.5627
     3.5633   4.4525   4.7558   4.8715   5.3324   5.5312   5.7052   6.1357
     6.5116

          k = 0.2000-0.4000 0.2000 ( 11163 PWs)   bands (ev):

   -47.1269 -44.3667 -43.4830 -25.5701 -25.5481 -21.7563 -21.7319 -21.7267
   -19.1984 -18.9945 -18.9535 -18.4666 -18.2292 -18.2266 -15.5681 -15.5143
   -15.3763 -15.3601 -15.2828 -12.3080 -10.1266 -10.0452  -9.7444  -9.4638
    -9.0299  -8.8919  -8.8874  -8.7908  -8.7772  -8.6796  -8.6483  -0.9477
     1.2920   1.2944   1.8755   2.7219   2.8015   2.8811   3.1388   3.5339
     3.5740   4.4937   4.7633   4.8604   5.3964   5.6012   5.6251   6.1752
     6.4798

          k =-0.2000 0.4000-0.4000 ( 11170 PWs)   bands (ev):

   -47.1269 -44.3667 -43.4830 -25.5729 -25.5452 -21.7563 -21.7321 -21.7268
   -19.1984 -18.9945 -18.9534 -18.4674 -18.2307 -18.2269 -15.5676 -15.5143
   -15.3762 -15.3600 -15.2832 -12.2811 -10.1146 -10.0243  -9.7528  -9.4590
    -9.0494  -8.9776  -8.8878  -8.7975  -8.7784  -8.6675  -8.6238  -0.9786
     1.2230   1.2722   1.9768   2.7528   2.8115   2.9157   3.2345   3.5657
     3.6350   4.6966   4.8505   4.9321   5.3533   5.5286   5.6178   5.9583
     6.4089

          k = 0.2000-0.4000-0.4000 ( 11170 PWs)   bands (ev):

   -47.1269 -44.3667 -43.4830 -25.5749 -25.5432 -21.7564 -21.7322 -21.7267
   -19.1989 -18.9944 -18.9533 -18.4672 -18.2307 -18.2266 -15.5681 -15.5142
   -15.3763 -15.3602 -15.2825 -12.2850 -10.1016 -10.0159  -9.7337  -9.4913
    -9.0577  -8.9947  -8.8788  -8.7986  -8.7784  -8.6696  -8.6104  -0.9602
     1.2206   1.2714   1.9089   2.7911   2.8340   2.9321   3.1837   3.5540
     3.6658   4.8018   4.8612   4.9426   5.2947   5.3941   5.6942   5.9891
     6.2822

          k = 0.4000 0.2000-0.4000 ( 11170 PWs)   bands (ev):

   -47.1269 -44.3667 -43.4830 -25.5744 -25.5437 -21.7568 -21.7319 -21.7267
   -19.1991 -18.9944 -18.9534 -18.4670 -18.2317 -18.2250 -15.5681 -15.5149
   -15.3764 -15.3605 -15.2815 -12.2939 -10.0688 -10.0115  -9.7165  -9.5204
    -9.0645  -8.9384  -8.8792  -8.8209  -8.7909  -8.6921  -8.6275  -0.9614
     1.2149   1.2823   1.9700   2.7404   2.8399   2.9375   3.2408   3.5710
     3.6173   4.7080   4.8952   4.9462   5.2605   5.4767   5.6249   5.9596
     6.4349

          k =-0.4000-0.2000-0.4000 ( 11170 PWs)   bands (ev):

   -47.1269 -44.3667 -43.4830 -25.5731 -25.5450 -21.7569 -21.7318 -21.7266
   -19.1988 -18.9944 -18.9535 -18.4669 -18.2316 -18.2252 -15.5683 -15.5148
   -15.3764 -15.3605 -15.2810 -12.2997 -10.0469  -9.9864  -9.7215  -9.5417
    -9.0895  -8.9346  -8.8689  -8.8475  -8.8141  -8.6650  -8.6110  -0.9516
     1.2148   1.2842   1.9516   2.7450   2.8678   2.8810   3.3251   3.5819
     3.5988   4.6773   4.7964   4.9230   5.4159   5.4560   5.5753   5.9411
     6.4189

          k = 0.4000-0.2000 0.4000 ( 11170 PWs)   bands (ev):

   -47.1269 -44.3667 -43.4830 -25.5731 -25.5450 -21.7566 -21.7318 -21.7268
   -19.1988 -18.9944 -18.9535 -18.4673 -18.2317 -18.2252 -15.5674 -15.5149
   -15.3763 -15.3603 -15.2822 -12.2874 -10.0843 -10.0418  -9.7483  -9.4522
    -9.0496  -8.9165  -8.9004  -8.8001  -8.7866  -8.6958  -8.6590  -0.9668
     1.2075   1.2882   1.9405   2.7787   2.8470   2.9304   3.1831   3.5644
     3.6492   4.7858   4.8967   4.9511   5.2828   5.4092   5.7255   5.9648
     6.3372

          k =-0.4000 0.4000 0.2000 ( 11170 PWs)   bands (ev):

   -47.1269 -44.3667 -43.4830 -25.5749 -25.5432 -21.7564 -21.7322 -21.7267
   -19.1989 -18.9944 -18.9533 -18.4671 -18.2306 -18.2267 -15.5683 -15.5142
   -15.3763 -15.3602 -15.2823 -12.2873 -10.1138  -9.9797  -9.7180  -9.5362
    -9.0551  -8.9765  -8.8853  -8.8226  -8.7845  -8.6438  -8.6139  -0.9612
     1.2254   1.2681   1.9529   2.7680   2.8091   2.9136   3.2404   3.5600
     3.6330   4.7212   4.8683   4.9304   5.3006   5.4857   5.6156   5.9737
     6.4086

          k =-0.4000 0.4000-0.4000 ( 11215 PWs)   bands (ev):

   -47.1269 -44.3667 -43.4830 -25.5730 -25.5451 -21.7563 -21.7321 -21.7270
   -19.1989 -18.9945 -18.9535 -18.4682 -18.2318 -18.2271 -15.5667 -15.5146
   -15.3762 -15.3600 -15.2835 -12.2550 -10.0619 -10.0489  -9.7756  -9.4188
    -9.0663  -9.0271  -8.9485  -8.8003  -8.7796  -8.6440  -8.6064  -1.0239
     1.1846   1.2202   2.0606   2.8139   2.8578   2.8992   3.4334   3.6272
     3.6522   4.8894   4.9384   5.0152   5.3254   5.5014   5.6504   5.9478
     5.9748

          k = 0.4000-0.4000-0.4000 ( 11215 PWs)   bands (ev):

   -47.1269 -44.3667 -43.4830 -25.5743 -25.5438 -21.7564 -21.7322 -21.7269
   -19.1992 -18.9944 -18.9535 -18.4679 -18.2318 -18.2269 -15.5672 -15.5146
   -15.3762 -15.3601 -15.2829 -12.2590 -10.0612 -10.0206  -9.7682  -9.4519
    -9.0735  -9.0325  -8.9432  -8.7991  -8.7878  -8.6418  -8.5952  -1.0136
     1.1902   1.2142   2.0428   2.8180   2.8617   2.9064   3.4325   3.6048
     3.6732   4.8690   4.9769   5.0350   5.2957   5.4403   5.6328   5.9362
     6.0241

     highest occupied level (ev):     6.6911

!    total energy              =   -1440.84292414 Ry
     total all-electron energy =     -1440.842924 Ry
     estimated scf accuracy    <          5.6E-11 Ry

     The total energy is the sum of the following terms:
     one-electron contribution =    -592.88197024 Ry
     hartree contribution      =     345.86481791 Ry
     xc contribution           =    -129.30767881 Ry
     ewald contribution        =    -342.76060903 Ry
     one-center paw contrib.   =    -721.75748397 Ry

     convergence has been achieved in  45 iterations

     Forces acting on atoms (cartesian axes, Ry/au):

     atom    1 type  1   force =    -0.01822010   -0.01197372   -0.01822010
     atom    2 type  2   force =     0.01379659    0.01594947   -0.01032916
     atom    3 type  1   force =    -0.00990085    0.01508233   -0.00990085
     atom    4 type  2   force =    -0.01032916    0.01594947    0.01379659
     atom    5 type  4   force =    -0.06539180   -0.14298989   -0.06539180
     atom    6 type  3   force =     0.23433541    0.25904417    0.23433541
     atom    7 type  5   force =     0.82536663    0.00141239   -0.00175415
     atom    8 type  5   force =    -0.86091640   -0.05889794   -0.05601308
     atom    9 type  5   force =     0.00540563    0.83444455    0.00540563
     atom   10 type  5   force =    -0.05637872   -0.87053526   -0.05637872
     atom   11 type  5   force =    -0.00175415    0.00141239    0.82536663
     atom   12 type  5   force =    -0.05601308   -0.05889794   -0.86091640

     Total force =     2.127638     Total SCF correction =     0.000027


     Computing stress (Cartesian axis) and pressure

          total   stress  (Ry/bohr**3)                   (kbar)     P=      497.34
   0.00339456  -0.00039690  -0.00058838          499.36      -58.39      -86.55
  -0.00039690   0.00335338  -0.00039690          -58.39      493.30      -58.39
  -0.00058838  -0.00039690   0.00339456          -86.55      -58.39      499.36


     Writing all to output data dir ./Na2K2SnZrO6.save/

     init_run     :      6.51s CPU      6.72s WALL (       1 calls)
     electrons    :    307.68s CPU    315.62s WALL (       1 calls)
     forces       :      1.37s CPU      1.41s WALL (       1 calls)
     stress       :      3.98s CPU      4.08s WALL (       1 calls)

     Called by init_run:
     wfcinit      :      3.87s CPU      3.98s WALL (       1 calls)
     potinit      :      1.06s CPU      1.07s WALL (       1 calls)
     hinit0       :      1.29s CPU      1.33s WALL (       1 calls)

     Called by electrons:
     c_bands      :    247.37s CPU    252.22s WALL (      45 calls)
     sum_band     :     31.38s CPU     33.19s WALL (      45 calls)
     v_of_rho     :      1.26s CPU      1.31s WALL (      46 calls)
     newd         :      4.84s CPU      5.85s WALL (      46 calls)
     PAW_pot      :     23.11s CPU     23.22s WALL (      46 calls)
     mix_rho      :      0.23s CPU      0.25s WALL (      45 calls)

     Called by c_bands:
     init_us_2    :      2.89s CPU      3.00s WALL (    3627 calls)
     init_us_2:cp :      2.87s CPU      2.99s WALL (    3627 calls)
     cegterg      :    238.42s CPU    243.10s WALL (    1755 calls)

     Called by *egterg:
     cdiaghg      :     86.89s CPU     87.99s WALL (   10396 calls)
     h_psi        :    109.39s CPU    112.25s WALL (   10435 calls)
     s_psi        :     10.27s CPU     10.38s WALL (   10435 calls)
     g_psi        :      1.62s CPU      1.63s WALL (    8641 calls)

     Called by h_psi:
     h_psi:calbec :     12.42s CPU     13.01s WALL (   10435 calls)
     vloc_psi     :     85.73s CPU     87.86s WALL (   10435 calls)
     add_vuspsi   :     10.61s CPU     10.74s WALL (   10435 calls)

     General routines
     calbec       :     17.02s CPU     17.87s WALL (   12385 calls)
     fft          :      0.87s CPU      0.97s WALL (     621 calls)
     ffts         :      0.27s CPU      0.28s WALL (      91 calls)
     fftw         :     91.21s CPU     93.46s WALL (  505519 calls)
     interpolate  :      0.31s CPU      0.32s WALL (      46 calls)

     Parallel routines

     PWSCF        :   5m21.21s CPU   5m33.27s WALL


   This run was terminated on:  23:39:49  30Nov2025            

=------------------------------------------------------------------------------=
   JOB DONE.
=------------------------------------------------------------------------------=
