
     Program PWSCF v.7.1 starts on 30Nov2025 at  4:35:20 

     This program is part of the open-source Quantum ESPRESSO suite
     for quantum simulation of materials; please cite
         "P. Giannozzi et al., J. Phys.:Condens. Matter 21 395502 (2009);
         "P. Giannozzi et al., J. Phys.:Condens. Matter 29 465901 (2017);
         "P. Giannozzi et al., J. Chem. Phys. 152 154105 (2020);
          URL http://www.quantum-espresso.org", 
     in publications or presentations arising from this work. More details at
     http://www.quantum-espresso.org/quote

     Parallel version (MPI & OpenMP), running on      16 processor cores
     Number of MPI processes:                16
     Threads/MPI process:                     1

     MPI processes distributed on     1 nodes
     45645 MiB available memory on the printing compute node when the environment starts

     Waiting for input...
     Reading input from standard input

     Current dimensions of program PWSCF are:
     Max number of different atomic species (ntypx) = 10
     Max number of k-points (npk) =  40000
     Max angular momentum in pseudopotentials (lmaxx) =  4

     File ./K4SnZrO6.update deleted, as requested

     File ./K4SnZrO6.bfgs deleted, as requested
     Message from routine read_pp_mesh:
     mismatch in mesh size, discarding the one in header
     Message from routine read_pp_mesh:
     mismatch in mesh size, discarding the one in header
     Message from routine read_pp_mesh:
     mismatch in mesh size, discarding the one in header
     Message from routine read_pp_mesh:
     mismatch in mesh size, discarding the one in header
     Message from routine setup:
     using ibrav=0 with symmetry is DISCOURAGED, use correct ibrav instead

     R & G space division:  proc/nbgrp/npool/nimage =      16
     Subspace diagonalization in iterative solution of the eigenvalue problem:
     a serial algorithm will be used


     Parallelization info
     --------------------
     sticks:   dense  smooth     PW     G-vecs:    dense   smooth      PW
     Min         386     193     53                22828     8077    1153
     Max         387     194     54                22830     8081    1156
     Sum        6185    3097    849               365253   129257   18469

     Using Slab Decomposition



     bravais-lattice index     =            0
     lattice parameter (alat)  =      12.7194  a.u.
     unit-cell volume          =    2057.5140 (a.u.)^3
     number of atoms/cell      =           12
     number of atomic types    =            4
     number of electrons       =        98.00
     number of Kohn-Sham states=           49
     kinetic-energy cutoff     =      60.0000  Ry
     charge density cutoff     =     480.0000  Ry
     scf convergence threshold =      1.0E-10
     mixing beta               =       0.7000
     number of iterations used =            8  plain     mixing
     energy convergence thresh.=      1.0E-04
     force convergence thresh. =      1.0E-05
     press convergence thresh. =      5.0E-01
     Exchange-correlation= SLA PW PBX PBC
                           (   1   4   3   4   0   0   0)
     nstep                     =          500


     celldm(1)=  12.719385  celldm(2)=   0.000000  celldm(3)=   0.000000
     celldm(4)=   0.000000  celldm(5)=   0.000000  celldm(6)=   0.000000

     crystal axes: (cart. coord. in units of alat)
               a(1) = (   0.999979  -0.004612  -0.004612 )  
               a(2) = (  -0.004612   0.999979  -0.004612 )  
               a(3) = (  -0.004612  -0.004612   0.999979 )  

     reciprocal axes: (cart. coord. in units 2 pi/alat)
               b(1) = (  1.000064  0.004634  0.004634 )  
               b(2) = (  0.004634  1.000064  0.004634 )  
               b(3) = (  0.004634  0.004634  1.000064 )  


     PseudoPot. # 1 for K  read from file:
     ./K.upf
     MD5 check sum: 9356cfae17991a8ac93a0af773ad5d28
     Pseudo is Projector augmented-wave + core cor, Zval =  9.0
     Generated using ATOMPAW code
     Shape of augmentation charge: SINC**2
     Using radial grid of 2342 points,  5 beta functions with: 
                l(1) =   0
                l(2) =   0
                l(3) =   1
                l(4) =   1
                l(5) =   2
     Q(r) pseudized with 0 coefficients 


     PseudoPot. # 2 for Zr read from file:
     ./Zr.upf
     MD5 check sum: 10be9e9715c592225794718718b87d8f
     Pseudo is Projector augmented-wave + core cor, Zval = 12.0
     Generated using ATOMPAW code
     Shape of augmentation charge: BESSEL
     Using radial grid of 2342 points,  6 beta functions with: 
                l(1) =   0
                l(2) =   0
                l(3) =   1
                l(4) =   1
                l(5) =   2
                l(6) =   2
     Q(r) pseudized with 0 coefficients 


     PseudoPot. # 3 for Sn read from file:
     ./Sn.upf
     MD5 check sum: f8d5c2bd65c7f969f3af92fc3a9f2821
     Pseudo is Projector augmented-wave + core cor, Zval = 14.0
     Generated using ATOMPAW code
     Shape of augmentation charge: BESSEL
     Using radial grid of 2342 points,  6 beta functions with: 
                l(1) =   0
                l(2) =   0
                l(3) =   1
                l(4) =   1
                l(5) =   2
                l(6) =   2
     Q(r) pseudized with 0 coefficients 


     PseudoPot. # 4 for O  read from file:
     ./O.upf
     MD5 check sum: 45fbb1c0d1f8837f1e386a2947d3aa26
     Pseudo is Projector augmented-wave + core cor, Zval =  6.0
     Generated using ATOMPAW code
     Shape of augmentation charge: SINC**2
     Using radial grid of 2342 points,  4 beta functions with: 
                l(1) =   0
                l(2) =   0
                l(3) =   1
                l(4) =   1
     Q(r) pseudized with 0 coefficients 


     atomic species   valence    mass     pseudopotential
        K              9.00    39.09800     K ( 1.00)
        Zr            12.00    91.22400     Zr( 1.00)
        Sn            14.00   118.71000     Sn( 1.00)
        O              6.00    15.99900     O ( 1.00)

      6 Sym. Ops. (no inversion) found



   Cartesian axes

     site n.     atom                  positions (alat units)
         1           K   tau(   1) = (   0.0083558   0.0083558   0.0083558  )
         2           K   tau(   2) = (   0.5018513   0.5018513  -0.0075638  )
         3           K   tau(   3) = (   0.5018513  -0.0075638   0.5018513  )
         4           K   tau(   4) = (  -0.0075638   0.5018513   0.5018513  )
         5           Sn  tau(   5) = (   0.2173125   0.2173125   0.2173125  )
         6           Zr  tau(   6) = (   0.7971677   0.7971677   0.7971677  )
         7           O   tau(   7) = (   0.3564059   0.0114941   0.0114941  )
         8           O   tau(   8) = (   0.6455662  -0.0358350  -0.0358350  )
         9           O   tau(   9) = (   0.0114941   0.3564059   0.0114941  )
        10           O   tau(  10) = (  -0.0358350   0.6455662  -0.0358350  )
        11           O   tau(  11) = (   0.0114941   0.0114941   0.3564059  )
        12           O   tau(  12) = (  -0.0358350  -0.0358350   0.6455662  )

     number of k points=    19
                       cart. coord. in units 2pi/alat
        k(    1) = (   0.0000000   0.0000000   0.0000000), wk =   0.0160000
        k(    2) = (   0.0009267   0.0009267   0.2000128), wk =   0.0960000
        k(    3) = (   0.0018534   0.0018534   0.4000256), wk =   0.0960000
        k(    4) = (   0.0018534   0.2009395   0.2009395), wk =   0.0960000
        k(    5) = (   0.0027802   0.2018662   0.4009523), wk =   0.1920000
        k(    6) = (  -0.0009267   0.1981594  -0.3990989), wk =   0.1920000
        k(    7) = (   0.0000000   0.1990861  -0.1990861), wk =   0.0960000
        k(    8) = (   0.0037069   0.4018790   0.4018790), wk =   0.0960000
        k(    9) = (   0.0000000   0.3981722  -0.3981722), wk =   0.0960000
        k(   10) = (   0.2018662   0.2018662   0.2018662), wk =   0.0320000
        k(   11) = (   0.2027930   0.2027930   0.4018790), wk =   0.0960000
        k(   12) = (   0.1990861   0.1990861  -0.3981722), wk =   0.0960000
        k(   13) = (   0.2000128   0.2000128  -0.1981594), wk =   0.0960000
        k(   14) = (   0.2037197   0.4028058   0.4028058), wk =   0.0960000
        k(   15) = (   0.2000128   0.3990989  -0.3972454), wk =   0.1920000
        k(   16) = (   0.2009395   0.4000256  -0.1972326), wk =   0.1920000
        k(   17) = (   0.1963059  -0.4009523  -0.4009523), wk =   0.0960000
        k(   18) = (   0.4037325   0.4037325   0.4037325), wk =   0.0320000
        k(   19) = (   0.4000256   0.4000256  -0.3963187), wk =   0.0960000

     Dense  grid:   365253 G-vectors     FFT dimensions: (  90,  90,  90)

     Smooth grid:   129257 G-vectors     FFT dimensions: (  64,  64,  64)

     Estimated max dynamical RAM per process >     116.62 MB

     Estimated total dynamical RAM >       1.82 GB

     Initial potential from superposition of free atoms

     starting charge      97.9154, renormalised to      98.0000
     Starting wfcs are  136 randomized atomic wfcs
     Checking if some PAW data can be deallocated... 

     total cpu time spent up to now is       18.8 secs

     per-process dynamical memory:    81.6 Mb

     Self-consistent Calculation

     iteration #  1     ecut=    60.00 Ry     beta= 0.70
     Davidson diagonalization with overlap
     ethr =  1.00E-02,  avg # of iterations =  2.0

     total cpu time spent up to now is       22.7 secs

     total energy              =   -1446.69648319 Ry
     estimated scf accuracy    <       6.67844750 Ry

     iteration #  2     ecut=    60.00 Ry     beta= 0.70
     Davidson diagonalization with overlap
     ethr =  6.81E-03,  avg # of iterations =  7.2

     total cpu time spent up to now is       30.5 secs

     total energy              =   -1440.33907024 Ry
     estimated scf accuracy    <      80.18818038 Ry

     iteration #  3     ecut=    60.00 Ry     beta= 0.70
     Davidson diagonalization with overlap
     ethr =  6.81E-03,  avg # of iterations =  6.9

     total cpu time spent up to now is       37.5 secs

     total energy              =   -1450.69816213 Ry
     estimated scf accuracy    <       1.39972426 Ry

     iteration #  4     ecut=    60.00 Ry     beta= 0.70
     Davidson diagonalization with overlap
     ethr =  1.43E-03,  avg # of iterations =  5.9

     total cpu time spent up to now is       42.6 secs

     total energy              =   -1451.01579922 Ry
     estimated scf accuracy    <       0.60424165 Ry

     iteration #  5     ecut=    60.00 Ry     beta= 0.70
     Davidson diagonalization with overlap
     ethr =  6.17E-04,  avg # of iterations =  1.1

     total cpu time spent up to now is       46.3 secs

     total energy              =   -1450.94405456 Ry
     estimated scf accuracy    <       0.49710712 Ry

     iteration #  6     ecut=    60.00 Ry     beta= 0.70
     Davidson diagonalization with overlap
     ethr =  5.07E-04,  avg # of iterations =  1.4

     total cpu time spent up to now is       50.0 secs

     total energy              =   -1450.82937221 Ry
     estimated scf accuracy    <       0.31794477 Ry

     iteration #  7     ecut=    60.00 Ry     beta= 0.70
     Davidson diagonalization with overlap
     ethr =  3.24E-04,  avg # of iterations =  4.2

     total cpu time spent up to now is       54.9 secs

     total energy              =   -1450.88552503 Ry
     estimated scf accuracy    <       0.02694734 Ry

     iteration #  8     ecut=    60.00 Ry     beta= 0.70
     Davidson diagonalization with overlap
     ethr =  2.75E-05,  avg # of iterations =  2.5

     total cpu time spent up to now is       59.0 secs

     total energy              =   -1450.88617448 Ry
     estimated scf accuracy    <       0.02854641 Ry

     iteration #  9     ecut=    60.00 Ry     beta= 0.70
     Davidson diagonalization with overlap
     ethr =  2.75E-05,  avg # of iterations =  1.0

     total cpu time spent up to now is       62.6 secs

     total energy              =   -1450.87825877 Ry
     estimated scf accuracy    <       0.02705339 Ry

     iteration # 10     ecut=    60.00 Ry     beta= 0.70
     Davidson diagonalization with overlap
     ethr =  2.75E-05,  avg # of iterations =  4.0

     total cpu time spent up to now is       67.5 secs

     total energy              =   -1450.88213707 Ry
     estimated scf accuracy    <       0.00960894 Ry

     iteration # 11     ecut=    60.00 Ry     beta= 0.70
     Davidson diagonalization with overlap
     ethr =  9.81E-06,  avg # of iterations =  1.4

     total cpu time spent up to now is       71.2 secs

     total energy              =   -1450.88134293 Ry
     estimated scf accuracy    <       0.00679981 Ry

     iteration # 12     ecut=    60.00 Ry     beta= 0.70
     Davidson diagonalization with overlap
     ethr =  6.94E-06,  avg # of iterations =  4.6

     total cpu time spent up to now is       75.6 secs

     total energy              =   -1450.88122153 Ry
     estimated scf accuracy    <       0.00232805 Ry

     iteration # 13     ecut=    60.00 Ry     beta= 0.70
     Davidson diagonalization with overlap
     ethr =  2.38E-06,  avg # of iterations =  4.3

     total cpu time spent up to now is       80.2 secs

     total energy              =   -1450.88140347 Ry
     estimated scf accuracy    <       0.00086547 Ry

     iteration # 14     ecut=    60.00 Ry     beta= 0.70
     Davidson diagonalization with overlap
     ethr =  8.83E-07,  avg # of iterations =  4.6

     total cpu time spent up to now is       85.0 secs

     total energy              =   -1450.88123835 Ry
     estimated scf accuracy    <       0.00122075 Ry

     iteration # 15     ecut=    60.00 Ry     beta= 0.70
     Davidson diagonalization with overlap
     ethr =  8.83E-07,  avg # of iterations =  2.6

     total cpu time spent up to now is       89.2 secs

     total energy              =   -1450.88124460 Ry
     estimated scf accuracy    <       0.00027841 Ry

     iteration # 16     ecut=    60.00 Ry     beta= 0.70
     Davidson diagonalization with overlap
     ethr =  2.84E-07,  avg # of iterations =  5.0

     total cpu time spent up to now is       94.3 secs

     total energy              =   -1450.88127731 Ry
     estimated scf accuracy    <       0.00010323 Ry

     iteration # 17     ecut=    60.00 Ry     beta= 0.70
     Davidson diagonalization with overlap
     ethr =  1.05E-07,  avg # of iterations =  2.0

     total cpu time spent up to now is       98.3 secs

     total energy              =   -1450.88127395 Ry
     estimated scf accuracy    <       0.00006100 Ry

     iteration # 18     ecut=    60.00 Ry     beta= 0.70
     Davidson diagonalization with overlap
     ethr =  6.22E-08,  avg # of iterations =  5.3

     total cpu time spent up to now is      103.3 secs

     total energy              =   -1450.88127922 Ry
     estimated scf accuracy    <       0.00000642 Ry

     iteration # 19     ecut=    60.00 Ry     beta= 0.70
     Davidson diagonalization with overlap
     ethr =  6.55E-09,  avg # of iterations =  5.2

     total cpu time spent up to now is      108.9 secs

     total energy              =   -1450.88128018 Ry
     estimated scf accuracy    <       0.00000390 Ry

     iteration # 20     ecut=    60.00 Ry     beta= 0.70
     Davidson diagonalization with overlap
     ethr =  3.98E-09,  avg # of iterations =  4.1

     total cpu time spent up to now is      113.4 secs

     total energy              =   -1450.88128037 Ry
     estimated scf accuracy    <       0.00000066 Ry

     iteration # 21     ecut=    60.00 Ry     beta= 0.70
     Davidson diagonalization with overlap
     ethr =  6.78E-10,  avg # of iterations =  7.3

     total cpu time spent up to now is      119.2 secs

     total energy              =   -1450.88133117 Ry
     estimated scf accuracy    <       0.00095419 Ry

     iteration # 22     ecut=    60.00 Ry     beta= 0.70
     Davidson diagonalization with overlap
     ethr =  6.78E-10,  avg # of iterations =  1.3

     total cpu time spent up to now is      122.9 secs

     total energy              =   -1450.88133171 Ry
     estimated scf accuracy    <       0.00094881 Ry

     iteration # 23     ecut=    60.00 Ry     beta= 0.70
     Davidson diagonalization with overlap
     ethr =  6.78E-10,  avg # of iterations =  1.0

     total cpu time spent up to now is      126.6 secs

     total energy              =   -1450.88133007 Ry
     estimated scf accuracy    <       0.00095101 Ry

     iteration # 24     ecut=    60.00 Ry     beta= 0.70
     Davidson diagonalization with overlap
     ethr =  6.78E-10,  avg # of iterations =  1.5

     total cpu time spent up to now is      130.3 secs

     total energy              =   -1450.88132717 Ry
     estimated scf accuracy    <       0.00094081 Ry

     iteration # 25     ecut=    60.00 Ry     beta= 0.70
     Davidson diagonalization with overlap
     ethr =  6.78E-10,  avg # of iterations =  4.9

     total cpu time spent up to now is      134.9 secs

     total energy              =   -1450.88132141 Ry
     estimated scf accuracy    <       0.00089750 Ry

     iteration # 26     ecut=    60.00 Ry     beta= 0.70
     Davidson diagonalization with overlap
     ethr =  6.78E-10,  avg # of iterations =  5.9

     total cpu time spent up to now is      140.1 secs

     total energy              =   -1450.88131401 Ry
     estimated scf accuracy    <       0.00083029 Ry

     iteration # 27     ecut=    60.00 Ry     beta= 0.70
     Davidson diagonalization with overlap
     ethr =  6.78E-10,  avg # of iterations =  5.9

     total cpu time spent up to now is      145.5 secs

     total energy              =   -1450.88133292 Ry
     estimated scf accuracy    <       0.00074730 Ry

     iteration # 28     ecut=    60.00 Ry     beta= 0.70
     Davidson diagonalization with overlap
     ethr =  6.78E-10,  avg # of iterations =  6.9

     total cpu time spent up to now is      152.4 secs

     total energy              =   -1450.88134065 Ry
     estimated scf accuracy    <       0.00097647 Ry

     iteration # 29     ecut=    60.00 Ry     beta= 0.70
     Davidson diagonalization with overlap
     ethr =  6.78E-10,  avg # of iterations =  6.0

     total cpu time spent up to now is      157.5 secs

     total energy              =   -1450.88111438 Ry
     estimated scf accuracy    <       0.00105313 Ry

     iteration # 30     ecut=    60.00 Ry     beta= 0.70
     Davidson diagonalization with overlap
     c_bands:  1 eigenvalues not converged
     c_bands:  1 eigenvalues not converged
     ethr =  6.78E-10,  avg # of iterations = 16.4

     total cpu time spent up to now is      169.3 secs

     total energy              =   -1450.88124931 Ry
     estimated scf accuracy    <       0.00004586 Ry

     iteration # 31     ecut=    60.00 Ry     beta= 0.70
     Davidson diagonalization with overlap
     ethr =  6.78E-10,  avg # of iterations =  4.6

     total cpu time spent up to now is      175.3 secs

     total energy              =   -1450.88124545 Ry
     estimated scf accuracy    <       0.00005316 Ry

     iteration # 32     ecut=    60.00 Ry     beta= 0.70
     Davidson diagonalization with overlap
     ethr =  6.78E-10,  avg # of iterations =  5.8

     total cpu time spent up to now is      182.5 secs

     total energy              =   -1450.88124232 Ry
     estimated scf accuracy    <       0.00002783 Ry

     iteration # 33     ecut=    60.00 Ry     beta= 0.70
     Davidson diagonalization with overlap
     ethr =  6.78E-10,  avg # of iterations =  6.5

     total cpu time spent up to now is      189.6 secs

     total energy              =   -1450.88124366 Ry
     estimated scf accuracy    <       0.00000178 Ry

     iteration # 34     ecut=    60.00 Ry     beta= 0.70
     Davidson diagonalization with overlap
     ethr =  6.78E-10,  avg # of iterations =  4.3

     total cpu time spent up to now is      194.0 secs

     total energy              =   -1450.88124352 Ry
     estimated scf accuracy    <       0.00000073 Ry

     iteration # 35     ecut=    60.00 Ry     beta= 0.70
     Davidson diagonalization with overlap
     ethr =  6.78E-10,  avg # of iterations =  5.3

     total cpu time spent up to now is      199.0 secs

     total energy              =   -1450.88124363 Ry
     estimated scf accuracy    <       0.00000003 Ry

     iteration # 36     ecut=    60.00 Ry     beta= 0.70
     Davidson diagonalization with overlap
     ethr =  3.04E-11,  avg # of iterations =  4.0

     total cpu time spent up to now is      203.7 secs

     total energy              =   -1450.88124363 Ry
     estimated scf accuracy    <          8.7E-09 Ry

     iteration # 37     ecut=    60.00 Ry     beta= 0.70
     Davidson diagonalization with overlap
     ethr =  8.93E-12,  avg # of iterations =  6.1

     total cpu time spent up to now is      208.7 secs

     total energy              =   -1450.88124363 Ry
     estimated scf accuracy    <          5.6E-10 Ry

     iteration # 38     ecut=    60.00 Ry     beta= 0.70
     Davidson diagonalization with overlap
     ethr =  5.67E-13,  avg # of iterations =  5.7

     total cpu time spent up to now is      214.7 secs

     End of self-consistent calculation

          k = 0.0000 0.0000 0.0000 ( 16121 PWs)   bands (ev):

   -44.0893 -27.4669 -27.4641 -27.4641 -25.3568 -22.7109 -22.7109 -22.5926
   -17.2093 -17.2093 -17.1451 -17.0138 -17.0138 -13.4484 -12.9821 -12.9821
   -12.4587 -11.8360 -11.8360 -11.1196 -11.0943 -11.0943 -10.9415 -10.9415
   -10.9066 -10.8271 -10.8271 -10.8246  -9.0712  -8.1002  -8.1002  -2.2910
    -0.3531  -0.3531   0.4092   0.4229   0.4229   1.1169   1.3092   1.3092
     1.7791   2.2871   2.2871   2.5634   2.5634   2.7054   3.3031   3.9726
     3.9726

          k = 0.0009 0.0009 0.2000 ( 16141 PWs)   bands (ev):

   -44.0893 -27.4667 -27.4644 -27.4641 -25.3567 -22.7109 -22.7109 -22.5927
   -17.2094 -17.2093 -17.1451 -17.0138 -17.0138 -13.4308 -13.0885 -12.9821
   -12.3491 -11.8413 -11.8228 -11.1207 -11.0932 -11.0906 -10.9395 -10.9381
   -10.9076 -10.8269 -10.8259 -10.8235  -9.0949  -8.1425  -8.1002  -2.2841
    -0.3619  -0.2346   0.2927   0.4152   0.5398   0.9941   1.3249   1.4725
     1.7351   2.1443   2.2208   2.6027   2.7033   2.8044   3.2666   3.7603
     3.9821

          k = 0.0019 0.0019 0.4000 ( 16141 PWs)   bands (ev):

   -44.0893 -27.4661 -27.4649 -27.4641 -25.3565 -22.7110 -22.7110 -22.5929
   -17.2097 -17.2092 -17.1451 -17.0138 -17.0138 -13.3737 -13.2470 -12.9821
   -12.2179 -11.8496 -11.7957 -11.1237 -11.0896 -11.0849 -10.9363 -10.9318
   -10.9093 -10.8272 -10.8239 -10.8210  -9.1390  -8.2073  -8.1001  -2.2742
    -0.3762  -0.0521   0.2915   0.4046   0.5830   0.8545   1.3513   1.6614
     1.7141   1.9262   2.1705   2.6583   2.9139   2.9156   3.1659   3.4706
     4.0162

          k = 0.0019 0.2009 0.2009 ( 16171 PWs)   bands (ev):

   -44.0893 -27.4664 -27.4645 -27.4642 -25.3566 -22.7110 -22.7109 -22.5928
   -17.2094 -17.2093 -17.1451 -17.0138 -17.0138 -13.4494 -13.0726 -13.0233
   -12.3152 -11.8564 -11.7621 -11.1219 -11.0920 -11.0911 -10.9377 -10.9354
   -10.9103 -10.8269 -10.8243 -10.8222  -9.1182  -8.1647  -8.1211  -2.2780
    -0.2873  -0.2339   0.3144   0.4385   0.5239   0.9848   1.2837   1.4618
     1.7437   2.1479   2.2507   2.6455   2.6634   2.8384   3.2546   3.7607
     3.8528

          k = 0.0028 0.2019 0.4010 ( 16167 PWs)   bands (ev):

   -44.0893 -27.4659 -27.4649 -27.4643 -25.3565 -22.7110 -22.7110 -22.5930
   -17.2096 -17.2093 -17.1451 -17.0138 -17.0138 -13.4254 -13.1913 -13.0243
   -12.1905 -11.8719 -11.7209 -11.1224 -11.0933 -11.0864 -10.9352 -10.9299
   -10.9131 -10.8269 -10.8223 -10.8201  -9.1606  -8.2245  -8.1276  -2.2751
    -0.2797  -0.0641   0.3094   0.4255   0.5725   0.8519   1.3185   1.6037
     1.7036   2.0409   2.1496   2.7365   2.8057   2.9244   3.1717   3.5272
     3.8461

          k =-0.0009 0.1982-0.3991 ( 16147 PWs)   bands (ev):

   -44.0893 -27.4660 -27.4649 -27.4643 -25.3565 -22.7110 -22.7110 -22.5930
   -17.2097 -17.2093 -17.1450 -17.0138 -17.0138 -13.3467 -13.2985 -13.0146
   -12.1316 -11.8838 -11.7533 -11.1216 -11.0938 -11.0841 -10.9348 -10.9311
   -10.9109 -10.8267 -10.8225 -10.8205  -9.1598  -8.2247  -8.1274  -2.2785
    -0.2847  -0.0080   0.2770   0.4103   0.5866   0.7854   1.4122   1.5784
     1.8067   1.9131   2.0892   2.7616   2.9353   2.9577   3.1129   3.4521
     3.8771

          k = 0.0000 0.1991-0.1991 ( 16146 PWs)   bands (ev):

   -44.0893 -27.4665 -27.4644 -27.4643 -25.3566 -22.7110 -22.7109 -22.5928
   -17.2096 -17.2093 -17.1450 -17.0138 -17.0138 -13.3837 -13.2028 -12.9999
   -12.2159 -11.8754 -11.8072 -11.1202 -11.0939 -11.0872 -10.9371 -10.9366
   -10.9077 -10.8266 -10.8244 -10.8231  -9.1170  -8.1651  -8.1207  -2.2836
    -0.3094  -0.1362   0.2240   0.3996   0.5891   0.8796   1.4064   1.5856
     1.7319   1.9935   2.1121   2.7132   2.7765   2.9294   3.2081   3.6271
     3.9252

          k = 0.0037 0.4019 0.4019 ( 16164 PWs)   bands (ev):

   -44.0893 -27.4655 -27.4650 -27.4646 -25.3564 -22.7110 -22.7110 -22.5932
   -17.2095 -17.2093 -17.1450 -17.0138 -17.0137 -13.4483 -13.1826 -13.0824
   -12.1063 -11.8904 -11.6467 -11.1213 -11.0968 -11.0886 -10.9332 -10.9257
   -10.9195 -10.8265 -10.8198 -10.8186  -9.2003  -8.2701  -8.1512  -2.2814
    -0.1242  -0.0287   0.2780   0.4636   0.5512   0.8665   1.2504   1.6626
     1.6822   1.9856   2.2031   2.7580   2.8601   2.9426   3.1216   3.5425
     3.6461

          k = 0.0000 0.3982-0.3982 ( 16164 PWs)   bands (ev):

   -44.0893 -27.4656 -27.4649 -27.4647 -25.3564 -22.7110 -22.7110 -22.5931
   -17.2096 -17.2093 -17.1450 -17.0138 -17.0137 -13.4181 -13.2409 -13.0635
   -12.0705 -11.9003 -11.6664 -11.1193 -11.0995 -11.0858 -10.9322 -10.9286
   -10.9167 -10.8264 -10.8198 -10.8190  -9.1997  -8.2702  -8.1511  -2.2834
    -0.1436   0.0193   0.2640   0.4816   0.5548   0.7798   1.3283   1.6334
     1.7364   1.9289   2.1603   2.8492   2.8868   2.9611   3.0670   3.4848
     3.6884

          k = 0.2019 0.2019 0.2019 ( 16176 PWs)   bands (ev):

   -44.0893 -27.4662 -27.4645 -27.4645 -25.3565 -22.7110 -22.7110 -22.5930
   -17.2094 -17.2094 -17.1451 -17.0138 -17.0138 -13.4955 -13.0236 -13.0236
   -12.3674 -11.7675 -11.7675 -11.1279 -11.0881 -11.0881 -10.9333 -10.9333
   -10.9146 -10.8251 -10.8251 -10.8199  -9.1415  -8.1649  -8.1649  -2.2618
    -0.2512  -0.2512   0.4174   0.4591   0.4591   1.1679   1.1971   1.1971
     1.7978   2.3501   2.3501   2.5685   2.5685   2.8625   3.2736   3.8520
     3.8520

          k = 0.2028 0.2028 0.4019 ( 16145 PWs)   bands (ev):

   -44.0893 -27.4657 -27.4649 -27.4645 -25.3564 -22.7110 -22.7110 -22.5931
   -17.2095 -17.2093 -17.1451 -17.0138 -17.0137 -13.4932 -13.1204 -13.0235
   -12.2624 -11.7767 -11.7143 -11.1286 -11.0899 -11.0817 -10.9300 -10.9290
   -10.9175 -10.8253 -10.8232 -10.8177  -9.1824  -8.2327  -8.1646  -2.2568
    -0.2700  -0.0883   0.4018   0.4518   0.5277   0.9614   1.1810   1.4189
     1.7764   2.2212   2.2763   2.6319   2.7563   2.9540   3.2188   3.5719
     3.8603

          k = 0.1991 0.1991-0.3982 ( 16155 PWs)   bands (ev):

   -44.0893 -27.4658 -27.4648 -27.4645 -25.3564 -22.7110 -22.7110 -22.5931
   -17.2096 -17.2093 -17.1450 -17.0138 -17.0138 -13.4271 -13.2314 -13.0231
   -12.1553 -11.7792 -11.7772 -11.1246 -11.0924 -11.0816 -10.9325 -10.9301
   -10.9131 -10.8248 -10.8240 -10.8182  -9.1807  -8.2330  -8.1643  -2.2683
    -0.2650  -0.0048   0.3611   0.4281   0.5451   0.8400   1.2501   1.6046
     1.7166   2.0415   2.2046   2.6795   2.9377   2.9871   3.1206   3.4714
     3.8665

          k = 0.2000 0.2000-0.1982 ( 16135 PWs)   bands (ev):

   -44.0893 -27.4663 -27.4645 -27.4644 -25.3565 -22.7110 -22.7110 -22.5929
   -17.2095 -17.2094 -17.1450 -17.0138 -17.0138 -13.3878 -13.2240 -13.0231
   -12.1548 -11.8911 -11.7682 -11.1205 -11.0935 -11.0878 -10.9372 -10.9334
   -10.9095 -10.8263 -10.8238 -10.8215  -9.1390  -8.1653  -8.1644  -2.2814
    -0.2423  -0.0956   0.2173   0.4194   0.5726   0.8708   1.3308   1.6752
     1.7467   1.8785   2.1888   2.6685   2.8531   2.9546   3.1734   3.5960
     3.8623

          k = 0.2037 0.4028 0.4028 ( 16147 PWs)   bands (ev):

   -44.0893 -27.4653 -27.4650 -27.4648 -25.3563 -22.7111 -22.7111 -22.5933
   -17.2095 -17.2094 -17.1450 -17.0138 -17.0137 -13.5195 -13.0990 -13.0825
   -12.2092 -11.7661 -11.6534 -11.1317 -11.0839 -11.0837 -10.9288 -10.9236
   -10.9225 -10.8248 -10.8218 -10.8153  -9.2211  -8.2700  -8.1973  -2.2533
    -0.1695  -0.0558   0.3929   0.4935   0.5128   0.9595   1.1360   1.4216
     1.7840   2.2514   2.2868   2.7116   2.7173   3.0080   3.1981   3.5956
     3.6398

          k = 0.2000 0.3991-0.3972 ( 16149 PWs)   bands (ev):

   -44.0893 -27.4655 -27.4649 -27.4647 -25.3563 -22.7111 -22.7111 -22.5932
   -17.2096 -17.2094 -17.1449 -17.0138 -17.0137 -13.4778 -13.1907 -13.0676
   -12.1225 -11.7996 -11.6699 -11.1262 -11.0933 -11.0812 -10.9336 -10.9249
   -10.9173 -10.8250 -10.8217 -10.8158  -9.2196  -8.2700  -8.1974  -2.2668
    -0.1376  -0.0012   0.3495   0.5037   0.5223   0.8345   1.2113   1.5342
     1.7397   2.1281   2.2141   2.7790   2.8453   2.9564   3.1197   3.5183
     3.6853

          k = 0.2009 0.4000-0.1972 ( 16140 PWs)   bands (ev):

   -44.0893 -27.4658 -27.4649 -27.4644 -25.3564 -22.7110 -22.7110 -22.5931
   -17.2096 -17.2093 -17.1450 -17.0138 -17.0138 -13.3951 -13.2596 -13.0479
   -12.0741 -11.9015 -11.7098 -11.1196 -11.0985 -11.0840 -10.9368 -10.9279
   -10.9131 -10.8264 -10.8216 -10.8191  -9.1802  -8.2323  -8.1651  -2.2801
    -0.1695  -0.0031   0.2480   0.4318   0.5751   0.7881   1.3514   1.6256
     1.7365   1.9571   2.1255   2.7912   2.8983   2.9416   3.0904   3.5055
     3.7799

          k = 0.1963-0.4010-0.4010 ( 16131 PWs)   bands (ev):

   -44.0893 -27.4654 -27.4650 -27.4646 -25.3563 -22.7111 -22.7111 -22.5932
   -17.2095 -17.2094 -17.1449 -17.0138 -17.0137 -13.4660 -13.1991 -13.0822
   -12.0849 -11.8383 -11.6538 -11.1242 -11.0956 -11.0835 -10.9357 -10.9238
   -10.9177 -10.8254 -10.8211 -10.8161  -9.2192  -8.2697  -8.1978  -2.2735
    -0.0497  -0.0326   0.2965   0.4683   0.5456   0.8627   1.2007   1.5834
     1.7199   2.0746   2.2210   2.7460   2.9003   2.9261   3.0934   3.5387
     3.6475

          k = 0.4037 0.4037 0.4037 ( 16143 PWs)   bands (ev):

   -44.0893 -27.4650 -27.4650 -27.4650 -25.3562 -22.7111 -22.7111 -22.5934
   -17.2095 -17.2095 -17.1449 -17.0137 -17.0137 -13.5661 -13.0824 -13.0824
   -12.2187 -11.6642 -11.6642 -11.1389 -11.0759 -11.0759 -10.9308 -10.9202
   -10.9202 -10.8226 -10.8226 -10.8124  -9.2584  -8.2695  -8.2695  -2.2318
    -0.0904  -0.0904   0.4079   0.5148   0.5148   1.0521   1.0521   1.3237
     1.8330   2.4038   2.4038   2.6269   2.6269   3.0954   3.2186   3.6361
     3.6361

          k = 0.4000 0.4000-0.3963 ( 16140 PWs)   bands (ev):

   -44.0893 -27.4653 -27.4650 -27.4648 -25.3563 -22.7111 -22.7111 -22.5934
   -17.2095 -17.2095 -17.1448 -17.0137 -17.0137 -13.5437 -13.1327 -13.0822
   -12.1619 -11.6892 -11.6644 -11.1350 -11.0827 -11.0758 -10.9345 -10.9203
   -10.9180 -10.8229 -10.8223 -10.8127  -9.2571  -8.2698  -8.2693  -2.2437
    -0.0874  -0.0388   0.4162   0.4990   0.5274   0.9485   1.0832   1.4101
     1.8084   2.2961   2.3197   2.6962   2.7621   2.9832   3.1739   3.5579
     3.6407

     highest occupied level (ev):     4.0162

!    total energy              =   -1450.88124363 Ry
     total all-electron energy =     -1450.881244 Ry
     estimated scf accuracy    <          4.1E-11 Ry

     The total energy is the sum of the following terms:
     one-electron contribution =    -475.90254078 Ry
     hartree contribution      =     296.69789575 Ry
     xc contribution           =    -119.27355756 Ry
     ewald contribution        =    -329.72636241 Ry
     one-center paw contrib.   =    -822.67667861 Ry

     convergence has been achieved in  38 iterations

     Forces acting on atoms (cartesian axes, Ry/au):

     atom    1 type  1   force =    -0.02035846   -0.02035846   -0.02035846
     atom    2 type  1   force =    -0.00115529   -0.00115529    0.00366564
     atom    3 type  1   force =    -0.00115529    0.00366564   -0.00115529
     atom    4 type  1   force =     0.00366564   -0.00115529   -0.00115529
     atom    5 type  3   force =     0.03724031    0.03724031    0.03724031
     atom    6 type  2   force =    -0.06820650   -0.06820650   -0.06820650
     atom    7 type  4   force =    -0.02806456    0.04375654    0.04375654
     atom    8 type  4   force =     0.00889791   -0.00918842   -0.00918842
     atom    9 type  4   force =     0.04375654   -0.02806456    0.04375654
     atom   10 type  4   force =    -0.00918842    0.00889791   -0.00918842
     atom   11 type  4   force =     0.04375654    0.04375654   -0.02806456
     atom   12 type  4   force =    -0.00918842   -0.00918842    0.00889791

     Total force =     0.184400     Total SCF correction =     0.000012


     Computing stress (Cartesian axis) and pressure

          total   stress  (Ry/bohr**3)                   (kbar)     P=       49.32
   0.00033528   0.00022470   0.00022470           49.32       33.06       33.06
   0.00022470   0.00033528   0.00022470           33.06       49.32       33.06
   0.00022470   0.00022470   0.00033528           33.06       33.06       49.32


     BFGS Geometry Optimization
     Energy error            =      0.0E+00 Ry
     Gradient error          =      6.8E-02 Ry/Bohr
     Cell gradient error     =      4.9E+01 kbar

     number of scf cycles    =   1
     number of bfgs steps    =   0

     enthalpy           new  =   -1450.8812436296 Ry

     new trust radius        =       0.1181371268 bohr
     new conv_thr            =            1.0E-10 Ry

     new unit-cell volume =   2109.49171 a.u.^3 (   312.59442 Ang^3 )
     density =      2.45590 g/cm^3

CELL_PARAMETERS (angstrom)
   6.786733342   0.006334100   0.006334100
   0.006334100   6.786733342   0.006334100
   0.006334100   0.006334100   6.786733342

ATOMIC_POSITIONS (angstrom)
K             0.0463601798        0.0463601798        0.0463601798
K             3.4242586682        3.4242586682       -0.0114371587
K             3.4242586682       -0.0114371587        3.4242586682
K            -0.0114371587        3.4242586682        3.4242586682
Sn            1.5114760763        1.5114760763        1.5114760763
Zr            5.4340396751        5.4340396751        5.4340396751
O             2.4051611145        0.1153194468        0.1153194468
O             4.3835877837       -0.2250696373       -0.2250696373
O             0.1153194468        2.4051611145        0.1153194468
O            -0.2250696373        4.3835877837       -0.2250696373
O             0.1153194468        0.1153194468        2.4051611145
O            -0.2250696373       -0.2250696373        4.3835877836



     Writing config-only to output data dir ./K4SnZrO6.save/
     NEW-OLD atomic charge density approx. for the potential
     extrapolated charge  100.41263, renormalised to   98.00000

     total cpu time spent up to now is      264.1 secs

     per-process dynamical memory:   119.0 Mb

     Self-consistent Calculation

     iteration #  1     ecut=    60.00 Ry     beta= 0.70
     Davidson diagonalization with overlap
     c_bands:  1 eigenvalues not converged
     c_bands:  1 eigenvalues not converged
     c_bands:  1 eigenvalues not converged
     c_bands:  1 eigenvalues not converged
     ethr =  1.00E-06,  avg # of iterations = 17.3

     total cpu time spent up to now is      276.7 secs

     total energy              =   -1448.94272274 Ry
     estimated scf accuracy    <       2.05992863 Ry

     iteration #  2     ecut=    60.00 Ry     beta= 0.70
     Davidson diagonalization with overlap
     ethr =  2.10E-03,  avg # of iterations =  6.1

     total cpu time spent up to now is      283.7 secs

     total energy              =   -1450.30887093 Ry
     estimated scf accuracy    <      11.05184553 Ry

     iteration #  3     ecut=    60.00 Ry     beta= 0.70
     Davidson diagonalization with overlap
     ethr =  2.10E-03,  avg # of iterations =  4.7

     total cpu time spent up to now is      289.2 secs

     total energy              =   -1451.04510403 Ry
     estimated scf accuracy    <       1.38993071 Ry

     iteration #  4     ecut=    60.00 Ry     beta= 0.70
     Davidson diagonalization with overlap
     ethr =  1.42E-03,  avg # of iterations =  3.1

     total cpu time spent up to now is      293.4 secs

     total energy              =   -1451.04422305 Ry
     estimated scf accuracy    <       0.68676814 Ry

     iteration #  5     ecut=    60.00 Ry     beta= 0.70
     Davidson diagonalization with overlap
     ethr =  7.01E-04,  avg # of iterations =  1.4

     total cpu time spent up to now is      297.1 secs

     total energy              =   -1450.97949688 Ry
     estimated scf accuracy    <       0.50719070 Ry

     iteration #  6     ecut=    60.00 Ry     beta= 0.70
     Davidson diagonalization with overlap
     ethr =  5.18E-04,  avg # of iterations =  2.4

     total cpu time spent up to now is      301.0 secs

     total energy              =   -1450.95035591 Ry
     estimated scf accuracy    <       0.28802106 Ry

     iteration #  7     ecut=    60.00 Ry     beta= 0.70
     Davidson diagonalization with overlap
     ethr =  2.94E-04,  avg # of iterations =  2.9

     total cpu time spent up to now is      305.0 secs

     total energy              =   -1450.94551460 Ry
     estimated scf accuracy    <       0.15189323 Ry

     iteration #  8     ecut=    60.00 Ry     beta= 0.70
     Davidson diagonalization with overlap
     ethr =  1.55E-04,  avg # of iterations =  2.3

     total cpu time spent up to now is      308.9 secs

     total energy              =   -1450.93674583 Ry
     estimated scf accuracy    <       0.10095151 Ry

     iteration #  9     ecut=    60.00 Ry     beta= 0.70
     Davidson diagonalization with overlap
     ethr =  1.03E-04,  avg # of iterations =  3.2

     total cpu time spent up to now is      313.1 secs

     total energy              =   -1450.93875881 Ry
     estimated scf accuracy    <       0.04595071 Ry

     iteration # 10     ecut=    60.00 Ry     beta= 0.70
     Davidson diagonalization with overlap
     ethr =  4.69E-05,  avg # of iterations =  1.8

     total cpu time spent up to now is      316.8 secs

     total energy              =   -1450.92719917 Ry
     estimated scf accuracy    <       0.03794641 Ry

     iteration # 11     ecut=    60.00 Ry     beta= 0.70
     Davidson diagonalization with overlap
     ethr =  3.87E-05,  avg # of iterations =  7.6

     total cpu time spent up to now is      322.9 secs

     total energy              =   -1450.93951064 Ry
     estimated scf accuracy    <       0.09957914 Ry

     iteration # 12     ecut=    60.00 Ry     beta= 0.70
     Davidson diagonalization with overlap
     ethr =  3.87E-05,  avg # of iterations =  1.0

     total cpu time spent up to now is      326.5 secs

     total energy              =   -1450.93970793 Ry
     estimated scf accuracy    <       0.09682173 Ry

     iteration # 13     ecut=    60.00 Ry     beta= 0.70
     Davidson diagonalization with overlap
     ethr =  3.87E-05,  avg # of iterations =  1.0

     total cpu time spent up to now is      330.1 secs

     total energy              =   -1450.93987603 Ry
     estimated scf accuracy    <       0.09632640 Ry

     iteration # 14     ecut=    60.00 Ry     beta= 0.70
     Davidson diagonalization with overlap
     ethr =  3.87E-05,  avg # of iterations =  1.0

     total cpu time spent up to now is      333.7 secs

     total energy              =   -1450.93998380 Ry
     estimated scf accuracy    <       0.09655262 Ry

     iteration # 15     ecut=    60.00 Ry     beta= 0.70
     Davidson diagonalization with overlap
     ethr =  3.87E-05,  avg # of iterations =  1.0

     total cpu time spent up to now is      337.3 secs

     total energy              =   -1450.93912756 Ry
     estimated scf accuracy    <       0.09717772 Ry

     iteration # 16     ecut=    60.00 Ry     beta= 0.70
     Davidson diagonalization with overlap
     ethr =  3.87E-05,  avg # of iterations =  1.0

     total cpu time spent up to now is      341.0 secs

     total energy              =   -1450.93710481 Ry
     estimated scf accuracy    <       0.09252854 Ry

     iteration # 17     ecut=    60.00 Ry     beta= 0.70
     Davidson diagonalization with overlap
     ethr =  3.87E-05,  avg # of iterations =  1.0

     total cpu time spent up to now is      344.6 secs

     total energy              =   -1450.93561265 Ry
     estimated scf accuracy    <       0.08119648 Ry

     iteration # 18     ecut=    60.00 Ry     beta= 0.70
     Davidson diagonalization with overlap
     ethr =  3.87E-05,  avg # of iterations =  1.0

     total cpu time spent up to now is      348.2 secs

     total energy              =   -1450.91509812 Ry
     estimated scf accuracy    <       0.07149067 Ry

     iteration # 19     ecut=    60.00 Ry     beta= 0.70
     Davidson diagonalization with overlap
     ethr =  3.87E-05,  avg # of iterations =  7.3

     total cpu time spent up to now is      353.9 secs

     total energy              =   -1450.93547657 Ry
     estimated scf accuracy    <       0.08631604 Ry

     iteration # 20     ecut=    60.00 Ry     beta= 0.70
     Davidson diagonalization with overlap
     ethr =  3.87E-05,  avg # of iterations =  4.1

     total cpu time spent up to now is      358.3 secs

     total energy              =   -1450.93459938 Ry
     estimated scf accuracy    <       0.02171674 Ry

     iteration # 21     ecut=    60.00 Ry     beta= 0.70
     Davidson diagonalization with overlap
     ethr =  2.22E-05,  avg # of iterations =  5.6

     total cpu time spent up to now is      363.1 secs

     total energy              =   -1450.93650178 Ry
     estimated scf accuracy    <       0.00044716 Ry

     iteration # 22     ecut=    60.00 Ry     beta= 0.70
     Davidson diagonalization with overlap
     ethr =  4.56E-07,  avg # of iterations =  6.6

     total cpu time spent up to now is      369.4 secs

     total energy              =   -1450.93670652 Ry
     estimated scf accuracy    <       0.00418230 Ry

     iteration # 23     ecut=    60.00 Ry     beta= 0.70
     Davidson diagonalization with overlap
     ethr =  4.56E-07,  avg # of iterations =  3.4

     total cpu time spent up to now is      373.5 secs

     total energy              =   -1450.93657087 Ry
     estimated scf accuracy    <       0.00299434 Ry

     iteration # 24     ecut=    60.00 Ry     beta= 0.70
     Davidson diagonalization with overlap
     ethr =  4.56E-07,  avg # of iterations =  5.5

     total cpu time spent up to now is      378.2 secs

     total energy              =   -1450.93653782 Ry
     estimated scf accuracy    <       0.00135784 Ry

     iteration # 25     ecut=    60.00 Ry     beta= 0.70
     Davidson diagonalization with overlap
     ethr =  4.56E-07,  avg # of iterations =  1.1

     total cpu time spent up to now is      381.8 secs

     total energy              =   -1450.93647934 Ry
     estimated scf accuracy    <       0.00106231 Ry

     iteration # 26     ecut=    60.00 Ry     beta= 0.70
     Davidson diagonalization with overlap
     ethr =  4.56E-07,  avg # of iterations =  5.0

     total cpu time spent up to now is      386.3 secs

     total energy              =   -1450.93648893 Ry
     estimated scf accuracy    <       0.00015496 Ry

     iteration # 27     ecut=    60.00 Ry     beta= 0.70
     Davidson diagonalization with overlap
     ethr =  1.58E-07,  avg # of iterations =  7.3

     total cpu time spent up to now is      391.6 secs

     total energy              =   -1450.93673225 Ry
     estimated scf accuracy    <       0.00131335 Ry

     iteration # 28     ecut=    60.00 Ry     beta= 0.70
     Davidson diagonalization with overlap
     ethr =  1.58E-07,  avg # of iterations =  2.6

     total cpu time spent up to now is      395.5 secs

     total energy              =   -1450.93671657 Ry
     estimated scf accuracy    <       0.00090081 Ry

     iteration # 29     ecut=    60.00 Ry     beta= 0.70
     Davidson diagonalization with overlap
     ethr =  1.58E-07,  avg # of iterations =  2.0

     total cpu time spent up to now is      399.3 secs

     total energy              =   -1450.93668928 Ry
     estimated scf accuracy    <       0.00076014 Ry

     iteration # 30     ecut=    60.00 Ry     beta= 0.70
     Davidson diagonalization with overlap
     ethr =  1.58E-07,  avg # of iterations =  4.3

     total cpu time spent up to now is      403.6 secs

     total energy              =   -1450.93667282 Ry
     estimated scf accuracy    <       0.00029939 Ry

     iteration # 31     ecut=    60.00 Ry     beta= 0.70
     Davidson diagonalization with overlap
     ethr =  1.58E-07,  avg # of iterations =  5.5

     total cpu time spent up to now is      408.3 secs

     total energy              =   -1450.93667996 Ry
     estimated scf accuracy    <       0.00003971 Ry

     iteration # 32     ecut=    60.00 Ry     beta= 0.70
     Davidson diagonalization with overlap
     ethr =  4.05E-08,  avg # of iterations =  6.0

     total cpu time spent up to now is      413.1 secs

     total energy              =   -1450.93668250 Ry
     estimated scf accuracy    <       0.00000303 Ry

     iteration # 33     ecut=    60.00 Ry     beta= 0.70
     Davidson diagonalization with overlap
     ethr =  3.09E-09,  avg # of iterations =  6.7

     total cpu time spent up to now is      419.1 secs

     total energy              =   -1450.93668494 Ry
     estimated scf accuracy    <       0.00000587 Ry

     iteration # 34     ecut=    60.00 Ry     beta= 0.70
     Davidson diagonalization with overlap
     ethr =  3.09E-09,  avg # of iterations =  5.6

     total cpu time spent up to now is      423.8 secs

     total energy              =   -1450.93668497 Ry
     estimated scf accuracy    <       0.00001651 Ry

     iteration # 35     ecut=    60.00 Ry     beta= 0.70
     Davidson diagonalization with overlap
     ethr =  3.09E-09,  avg # of iterations =  1.0

     total cpu time spent up to now is      427.4 secs

     total energy              =   -1450.93668546 Ry
     estimated scf accuracy    <       0.00001594 Ry

     iteration # 36     ecut=    60.00 Ry     beta= 0.70
     Davidson diagonalization with overlap
     ethr =  3.09E-09,  avg # of iterations =  1.0

     total cpu time spent up to now is      431.0 secs

     total energy              =   -1450.93668583 Ry
     estimated scf accuracy    <       0.00001785 Ry

     iteration # 37     ecut=    60.00 Ry     beta= 0.70
     Davidson diagonalization with overlap
     ethr =  3.09E-09,  avg # of iterations =  3.1

     total cpu time spent up to now is      435.0 secs

     total energy              =   -1450.93668517 Ry
     estimated scf accuracy    <       0.00002455 Ry

     iteration # 38     ecut=    60.00 Ry     beta= 0.70
     Davidson diagonalization with overlap
     ethr =  3.09E-09,  avg # of iterations =  2.1

     total cpu time spent up to now is      438.9 secs

     total energy              =   -1450.93668576 Ry
     estimated scf accuracy    <       0.00001941 Ry

     iteration # 39     ecut=    60.00 Ry     beta= 0.70
     Davidson diagonalization with overlap
     ethr =  3.09E-09,  avg # of iterations =  1.0

     total cpu time spent up to now is      442.5 secs

     total energy              =   -1450.93668342 Ry
     estimated scf accuracy    <       0.00002150 Ry

     iteration # 40     ecut=    60.00 Ry     beta= 0.70
     Davidson diagonalization with overlap
     ethr =  3.09E-09,  avg # of iterations =  6.1

     total cpu time spent up to now is      447.6 secs

     total energy              =   -1450.93668362 Ry
     estimated scf accuracy    <       0.00000394 Ry

     iteration # 41     ecut=    60.00 Ry     beta= 0.70
     Davidson diagonalization with overlap
     ethr =  3.09E-09,  avg # of iterations =  2.4

     total cpu time spent up to now is      451.5 secs

     total energy              =   -1450.93668354 Ry
     estimated scf accuracy    <       0.00000140 Ry

     iteration # 42     ecut=    60.00 Ry     beta= 0.70
     Davidson diagonalization with overlap
     ethr =  1.43E-09,  avg # of iterations =  6.1

     total cpu time spent up to now is      456.4 secs

     total energy              =   -1450.93668369 Ry
     estimated scf accuracy    <       0.00000001 Ry

     iteration # 43     ecut=    60.00 Ry     beta= 0.70
     Davidson diagonalization with overlap
     ethr =  1.43E-11,  avg # of iterations =  7.4

     total cpu time spent up to now is      463.6 secs

     total energy              =   -1450.93668370 Ry
     estimated scf accuracy    <       0.00000025 Ry

     iteration # 44     ecut=    60.00 Ry     beta= 0.70
     Davidson diagonalization with overlap
     ethr =  1.43E-11,  avg # of iterations =  6.2

     total cpu time spent up to now is      469.3 secs

     total energy              =   -1450.93668370 Ry
     estimated scf accuracy    <       0.00000005 Ry

     iteration # 45     ecut=    60.00 Ry     beta= 0.70
     Davidson diagonalization with overlap
     ethr =  1.43E-11,  avg # of iterations =  6.2

     total cpu time spent up to now is      474.2 secs

     total energy              =   -1450.93668370 Ry
     estimated scf accuracy    <          4.6E-09 Ry

     iteration # 46     ecut=    60.00 Ry     beta= 0.70
     Davidson diagonalization with overlap
     ethr =  4.70E-12,  avg # of iterations =  5.8

     total cpu time spent up to now is      479.3 secs

     total energy              =   -1450.93668370 Ry
     estimated scf accuracy    <          1.2E-10 Ry

     iteration # 47     ecut=    60.00 Ry     beta= 0.70
     Davidson diagonalization with overlap
     ethr =  1.27E-13,  avg # of iterations =  7.4

     total cpu time spent up to now is      485.6 secs

     total energy              =   -1450.93668370 Ry
     estimated scf accuracy    <          2.4E-10 Ry

     iteration # 48     ecut=    60.00 Ry     beta= 0.70
     Davidson diagonalization with overlap
     ethr =  1.27E-13,  avg # of iterations =  4.3

     total cpu time spent up to now is      489.9 secs

     End of self-consistent calculation

          k = 0.0000 0.0000 0.0000 ( 16121 PWs)   bands (ev):

   -44.4324 -27.7097 -27.7074 -27.7074 -25.1423 -22.9534 -22.9534 -22.9139
   -17.3207 -17.3207 -17.2148 -17.1345 -17.1345 -13.5039 -13.1013 -13.1013
   -12.6258 -12.0328 -12.0328 -11.3640 -11.3369 -11.3369 -11.1778 -11.1778
   -11.1476 -11.0725 -11.0725 -11.0686  -8.8770  -8.0527  -8.0527  -2.4816
    -0.3579  -0.3579   0.2940   0.3554   0.3554   0.9417   1.1228   1.1228
     1.7118   2.1025   2.1025   2.3874   2.3874   2.4636   3.1357   3.7026
     3.7026

          k =-0.0002-0.0002 0.1984 ( 16141 PWs)   bands (ev):

   -44.4324 -27.7095 -27.7075 -27.7073 -25.1422 -22.9534 -22.9534 -22.9140
   -17.3208 -17.3207 -17.2148 -17.1345 -17.1345 -13.4923 -13.1963 -13.1010
   -12.5265 -12.0382 -12.0209 -11.3646 -11.3355 -11.3331 -11.1761 -11.1747
   -11.1483 -11.0721 -11.0715 -11.0678  -8.9012  -8.0866  -8.0526  -2.4744
    -0.3669  -0.2585   0.2060   0.3490   0.4491   0.8381   1.1425   1.2731
     1.6521   1.9752   2.0553   2.4200   2.5180   2.5696   3.0964   3.4850
     3.7136

          k =-0.0004-0.0004 0.3967 ( 16141 PWs)   bands (ev):

   -44.4324 -27.7090 -27.7080 -27.7073 -25.1421 -22.9534 -22.9534 -22.9142
   -17.3210 -17.3206 -17.2148 -17.1345 -17.1345 -13.4545 -13.3299 -13.1005
   -12.4081 -12.0470 -11.9976 -11.3670 -11.3313 -11.3273 -11.1733 -11.1693
   -11.1492 -11.0721 -11.0697 -11.0659  -8.9456  -8.1376  -8.0525  -2.4639
    -0.3815  -0.1289   0.2381   0.3404   0.4819   0.7220   1.1755   1.5164
     1.5589   1.7660   2.0220   2.4800   2.6852   2.7170   2.9971   3.1986
     3.7166

          k =-0.0004 0.1982 0.1982 ( 16171 PWs)   bands (ev):

   -44.4324 -27.7093 -27.7076 -27.7074 -25.1421 -22.9534 -22.9534 -22.9141
   -17.3208 -17.3207 -17.2149 -17.1345 -17.1345 -13.5148 -13.1803 -13.1379
   -12.4926 -12.0489 -11.9711 -11.3650 -11.3351 -11.3335 -11.1745 -11.1724
   -11.1503 -11.0722 -11.0699 -11.0667  -8.9248  -8.1047  -8.0693  -2.4683
    -0.3051  -0.2546   0.2351   0.3639   0.4379   0.8225   1.1078   1.2663
     1.6605   1.9756   2.0902   2.4530   2.4862   2.6114   3.0862   3.4859
     3.5991

          k =-0.0006 0.1980 0.3965 ( 16167 PWs)   bands (ev):

   -44.4324 -27.7089 -27.7080 -27.7075 -25.1420 -22.9535 -22.9534 -22.9143
   -17.3209 -17.3207 -17.2148 -17.1345 -17.1345 -13.5045 -13.2808 -13.1384
   -12.3824 -12.0581 -11.9376 -11.3649 -11.3356 -11.3292 -11.1724 -11.1676
   -11.1525 -11.0720 -11.0680 -11.0652  -8.9674  -8.1521  -8.0744  -2.4638
    -0.2981  -0.1262   0.2516   0.3509   0.4830   0.7081   1.1482   1.4224
     1.5965   1.8861   1.9933   2.5524   2.5968   2.7024   3.0049   3.2588
     3.5958

          k = 0.0002 0.1987-0.3969 ( 16147 PWs)   bands (ev):

   -44.4324 -27.7089 -27.7080 -27.7075 -25.1420 -22.9535 -22.9534 -22.9142
   -17.3210 -17.3207 -17.2148 -17.1345 -17.1345 -13.4496 -13.3606 -13.1296
   -12.3359 -12.0637 -11.9659 -11.3648 -11.3358 -11.3266 -11.1719 -11.1685
   -11.1509 -11.0717 -11.0681 -11.0657  -8.9670  -8.1522  -8.0743  -2.4662
    -0.3014  -0.0936   0.2321   0.3443   0.4836   0.6610   1.2375   1.4460
     1.6663   1.7469   1.9283   2.5761   2.7122   2.7444   2.9480   3.1668
     3.6190

          k =-0.0000 0.1985-0.1985 ( 16146 PWs)   bands (ev):

   -44.4324 -27.7093 -27.7076 -27.7075 -25.1421 -22.9534 -22.9534 -22.9141
   -17.3209 -17.3207 -17.2148 -17.1345 -17.1345 -13.4544 -13.2976 -13.1167
   -12.4112 -12.0606 -12.0104 -11.3641 -11.3361 -11.3295 -11.1739 -11.1733
   -11.1484 -11.0718 -11.0699 -11.0677  -8.9242  -8.1049  -8.0690  -2.4723
    -0.3220  -0.1811   0.1540   0.3309   0.4938   0.7415   1.2249   1.4217
     1.5929   1.8406   1.9595   2.5250   2.5824   2.7006   3.0339   3.3324
     3.6643

          k =-0.0007 0.3963 0.3963 ( 16164 PWs)   bands (ev):

   -44.4324 -27.7085 -27.7081 -27.7078 -25.1419 -22.9535 -22.9535 -22.9144
   -17.3209 -17.3207 -17.2147 -17.1345 -17.1345 -13.5337 -13.2693 -13.1910
   -12.3128 -12.0616 -11.8757 -11.3629 -11.3397 -11.3324 -11.1705 -11.1639
   -11.1583 -11.0716 -11.0657 -11.0640  -9.0072  -8.1891  -8.0927  -2.4673
    -0.1773  -0.0761   0.2215   0.3729   0.4845   0.7154   1.0908   1.5031
     1.5792   1.7992   2.0800   2.5224   2.6783   2.6995   2.9605   3.2665
     3.4157

          k = 0.0000 0.3971-0.3971 ( 16164 PWs)   bands (ev):

   -44.4324 -27.7085 -27.7080 -27.7078 -25.1419 -22.9535 -22.9535 -22.9144
   -17.3210 -17.3207 -17.2147 -17.1345 -17.1345 -13.5113 -13.3172 -13.1733
   -12.2872 -12.0644 -11.8932 -11.3616 -11.3422 -11.3291 -11.1694 -11.1665
   -11.1561 -11.0715 -11.0656 -11.0644  -9.0069  -8.1892  -8.0926  -2.4687
    -0.1842  -0.0563   0.2130   0.4000   0.4831   0.6414   1.1649   1.5043
     1.6112   1.7619   1.9980   2.6130   2.6820   2.7363   2.9131   3.2052
     3.4520

          k = 0.1980 0.1980 0.1980 ( 16176 PWs)   bands (ev):

   -44.4324 -27.7091 -27.7076 -27.7076 -25.1420 -22.9534 -22.9534 -22.9142
   -17.3208 -17.3208 -17.2149 -17.1345 -17.1345 -13.5614 -13.1379 -13.1379
   -12.5278 -11.9766 -11.9766 -11.3698 -11.3312 -11.3312 -11.1706 -11.1706
   -11.1538 -11.0706 -11.0706 -11.0647  -8.9480  -8.1048  -8.1048  -2.4540
    -0.2699  -0.2699   0.3257   0.3856   0.3856   0.9762   1.0227   1.0227
     1.7273   2.1669   2.1669   2.3964   2.3964   2.6394   3.1110   3.5906
     3.5906

          k = 0.1978 0.1978 0.3963 ( 16145 PWs)   bands (ev):

   -44.4324 -27.7087 -27.7080 -27.7076 -25.1419 -22.9535 -22.9535 -22.9144
   -17.3209 -17.3207 -17.2148 -17.1345 -17.1345 -13.5676 -13.2213 -13.1374
   -12.4306 -11.9863 -11.9312 -11.3701 -11.3332 -11.3246 -11.1677 -11.1667
   -11.1563 -11.0705 -11.0689 -11.0630  -8.9891  -8.1588  -8.1045  -2.4476
    -0.2888  -0.1393   0.3370   0.3805   0.4361   0.8017   1.0137   1.2330
     1.6924   2.0606   2.1076   2.4512   2.5683   2.7131   3.0568   3.3083
     3.6009

          k = 0.1985 0.1985-0.3971 ( 16155 PWs)   bands (ev):

   -44.4324 -27.7088 -27.7079 -27.7076 -25.1419 -22.9535 -22.9535 -22.9143
   -17.3210 -17.3207 -17.2148 -17.1345 -17.1345 -13.5137 -13.3134 -13.1371
   -12.3429 -11.9868 -11.9822 -11.3672 -11.3350 -11.3243 -11.1697 -11.1677
   -11.1529 -11.0699 -11.0695 -11.0637  -8.9882  -8.1590  -8.1043  -2.4566
    -0.2858  -0.0862   0.3159   0.3574   0.4459   0.7069   1.0888   1.4475
     1.6105   1.8516   2.0561   2.4865   2.7364   2.7453   2.9610   3.1896
     3.6155

          k = 0.1984 0.1984-0.1987 ( 16135 PWs)   bands (ev):

   -44.4324 -27.7091 -27.7076 -27.7076 -25.1420 -22.9534 -22.9534 -22.9142
   -17.3209 -17.3207 -17.2148 -17.1345 -17.1345 -13.4666 -13.3120 -13.1374
   -12.3573 -12.0699 -11.9775 -11.3640 -11.3354 -11.3307 -11.1740 -11.1706
   -11.1498 -11.0716 -11.0689 -11.0667  -8.9466  -8.1051  -8.1044  -2.4692
    -0.2644  -0.1494   0.1571   0.3468   0.4803   0.7327   1.1635   1.5581
     1.5685   1.7081   2.0467   2.4672   2.6679   2.7241   3.0009   3.3019
     3.6147

          k = 0.1976 0.3961 0.3961 ( 16147 PWs)   bands (ev):

   -44.4324 -27.7084 -27.7081 -27.7079 -25.1418 -22.9535 -22.9535 -22.9145
   -17.3209 -17.3208 -17.2147 -17.1345 -17.1345 -13.5977 -13.2011 -13.1908
   -12.3769 -11.9745 -11.8824 -11.3729 -11.3275 -11.3270 -11.1664 -11.1620
   -11.1611 -11.0701 -11.0674 -11.0610  -9.0278  -8.1890  -8.1304  -2.4427
    -0.2091  -0.0995   0.3306   0.4027   0.4388   0.7967   0.9744   1.2447
     1.6985   2.0780   2.1470   2.5225   2.5321   2.7437   3.0392   3.3173
     3.4003

          k = 0.1984 0.3969-0.3973 ( 16149 PWs)   bands (ev):

   -44.4324 -27.7085 -27.7080 -27.7079 -25.1418 -22.9535 -22.9535 -22.9144
   -17.3209 -17.3208 -17.2147 -17.1345 -17.1345 -13.5638 -13.2785 -13.1770
   -12.3079 -11.9968 -11.8967 -11.3682 -11.3364 -11.3245 -11.1710 -11.1631
   -11.1565 -11.0702 -11.0671 -11.0617  -9.0270  -8.1890  -8.1305  -2.4536
    -0.1786  -0.0693   0.2884   0.4178   0.4550   0.6897   1.0531   1.3829
     1.6368   1.9718   2.0430   2.5815   2.6246   2.7196   2.9633   3.2437
     3.4455

          k = 0.1982 0.3967-0.1989 ( 16140 PWs)   bands (ev):

   -44.4324 -27.7088 -27.7080 -27.7076 -25.1419 -22.9535 -22.9535 -22.9143
   -17.3209 -17.3207 -17.2147 -17.1345 -17.1345 -13.4892 -13.3335 -13.1597
   -12.2890 -12.0691 -11.9298 -11.3627 -11.3408 -11.3269 -11.1739 -11.1657
   -11.1527 -11.0715 -11.0669 -11.0648  -8.9879  -8.1585  -8.1049  -2.4664
    -0.2006  -0.0834   0.1999   0.3592   0.4876   0.6571   1.1867   1.4918
     1.6101   1.7812   1.9647   2.5728   2.6941   2.7293   2.9296   3.2264
     3.5400

          k = 0.1991-0.3965-0.3965 ( 16131 PWs)   bands (ev):

   -44.4324 -27.7085 -27.7081 -27.7078 -25.1418 -22.9535 -22.9535 -22.9144
   -17.3209 -17.3208 -17.2147 -17.1345 -17.1344 -13.5543 -13.2841 -13.1906
   -12.2815 -12.0232 -11.8829 -11.3665 -11.3384 -11.3271 -11.1731 -11.1621
   -11.1567 -11.0706 -11.0665 -11.0620  -9.0269  -8.1888  -8.1307  -2.4592
    -0.1025  -0.0965   0.2414   0.3790   0.4798   0.7193   1.0464   1.4428
     1.6141   1.8761   2.0935   2.5038   2.6908   2.7108   2.9386   3.2647
     3.4166

          k = 0.3960 0.3960 0.3960 ( 16143 PWs)   bands (ev):

   -44.4324 -27.7082 -27.7081 -27.7081 -25.1417 -22.9535 -22.9535 -22.9146
   -17.3209 -17.3209 -17.2146 -17.1345 -17.1345 -13.6441 -13.1903 -13.1903
   -12.3702 -11.8934 -11.8934 -11.3800 -11.3196 -11.3196 -11.1685 -11.1589
   -11.1589 -11.0681 -11.0681 -11.0585  -9.0649  -8.1886  -8.1886  -2.4227
    -0.1314  -0.1314   0.3461   0.4260   0.4260   0.8910   0.8910   1.1396
     1.7566   2.2523   2.2523   2.4441   2.4441   2.8273   3.0649   3.3894
     3.3894

          k = 0.3967 0.3967-0.3974 ( 16140 PWs)   bands (ev):

   -44.4324 -27.7083 -27.7081 -27.7079 -25.1417 -22.9535 -22.9535 -22.9146
   -17.3209 -17.3209 -17.2146 -17.1345 -17.1345 -13.6256 -13.2319 -13.1902
   -12.3242 -11.9116 -11.8938 -11.3768 -11.3262 -11.3194 -11.1721 -11.1590
   -11.1570 -11.0684 -11.0677 -11.0589  -9.0642  -8.1888  -8.1885  -2.4324
    -0.1301  -0.0963   0.3567   0.4106   0.4448   0.7934   0.9263   1.2501
     1.7211   2.1298   2.1734   2.5010   2.5770   2.7125   3.0191   3.2924
     3.4003

     highest occupied level (ev):     3.7166

!    total energy              =   -1450.93668370 Ry
     total all-electron energy =     -1450.936684 Ry
     estimated scf accuracy    <          5.9E-11 Ry

     The total energy is the sum of the following terms:
     one-electron contribution =    -477.31841752 Ry
     hartree contribution      =     296.74389809 Ry
     xc contribution           =    -119.13241364 Ry
     ewald contribution        =    -328.56341786 Ry
     one-center paw contrib.   =    -822.66633277 Ry

     convergence has been achieved in  48 iterations

     Forces acting on atoms (cartesian axes, Ry/au):

     atom    1 type  1   force =    -0.01638247   -0.01638247   -0.01638247
     atom    2 type  1   force =    -0.00189779   -0.00189779    0.00451882
     atom    3 type  1   force =    -0.00189779    0.00451882   -0.00189779
     atom    4 type  1   force =     0.00451882   -0.00189779   -0.00189779
     atom    5 type  3   force =     0.00846972    0.00846972    0.00846972
     atom    6 type  2   force =    -0.01844090   -0.01844090   -0.01844090
     atom    7 type  4   force =    -0.02013937    0.04483896    0.04483896
     atom    8 type  4   force =     0.01242172   -0.02816493   -0.02816493
     atom    9 type  4   force =     0.04483896   -0.02013937    0.04483896
     atom   10 type  4   force =    -0.02816493    0.01242172   -0.02816493
     atom   11 type  4   force =     0.04483896    0.04483896   -0.02013937
     atom   12 type  4   force =    -0.02816493   -0.02816493    0.01242172

     Total force =     0.143617     Total SCF correction =     0.000021


     Computing stress (Cartesian axis) and pressure

          total   stress  (Ry/bohr**3)                   (kbar)     P=       31.53
   0.00021433   0.00017229   0.00017229           31.53       25.34       25.34
   0.00017229   0.00021433   0.00017229           25.34       31.53       25.34
   0.00017229   0.00017229   0.00021433           25.34       25.34       31.53

     Energy error            =      5.5E-02 Ry
     Gradient error          =      4.5E-02 Ry/Bohr
     Cell gradient error     =      3.2E+01 kbar

     number of scf cycles    =   2
     number of bfgs steps    =   1

     enthalpy           old  =   -1450.8812436296 Ry
     enthalpy           new  =   -1450.9366837037 Ry

     CASE: enthalpy          _new < enthalpy          _old

     new trust radius        =       0.1325001137 bohr
     new conv_thr            =            1.0E-10 Ry

     new unit-cell volume =   2172.31530 a.u.^3 (   321.90392 Ang^3 )
     density =      2.38487 g/cm^3

CELL_PARAMETERS (angstrom)
   6.853911279   0.056857475   0.056857475
   0.056857475   6.853911279   0.056857475
   0.056857475   0.056857475   6.853911279

ATOMIC_POSITIONS (angstrom)
K             0.0316165808        0.0316165808        0.0316165808
K             3.4819898094        3.4819898094        0.0430654906
K             3.4819898094        0.0430654906        3.4819898094
K             0.0430654906        3.4819898094        3.4819898094
Sn            1.5633228457        1.5633228457        1.5633228457
Zr            5.5400250670        5.5400250670        5.5400250670
O             2.4124134636        0.1748776470        0.1748776470
O             4.4329996107       -0.2171496418       -0.2171496418
O             0.1748776470        2.4124134636        0.1748776470
O            -0.2171496418        4.4329996107       -0.2171496418
O             0.1748776470        0.1748776470        2.4124134636
O            -0.2171496418       -0.2171496418        4.4329996106



     Writing config-only to output data dir ./K4SnZrO6.save/
     NEW-OLD atomic charge density approx. for the potential
     extrapolated charge  100.83172, renormalised to   98.00000

     total cpu time spent up to now is      539.3 secs

     per-process dynamical memory:   120.5 Mb

     Self-consistent Calculation

     iteration #  1     ecut=    60.00 Ry     beta= 0.70
     Davidson diagonalization with overlap
     c_bands:  1 eigenvalues not converged
     c_bands:  1 eigenvalues not converged
     c_bands:  1 eigenvalues not converged
     ethr =  1.00E-06,  avg # of iterations = 18.3

     total cpu time spent up to now is      552.3 secs

     total energy              =   -1448.37490087 Ry
     estimated scf accuracy    <       2.61750663 Ry

     iteration #  2     ecut=    60.00 Ry     beta= 0.70
     Davidson diagonalization with overlap
     ethr =  2.67E-03,  avg # of iterations =  6.0

     total cpu time spent up to now is      559.3 secs

     total energy              =   -1450.38337335 Ry
     estimated scf accuracy    <      13.26666938 Ry

     iteration #  3     ecut=    60.00 Ry     beta= 0.70
     Davidson diagonalization with overlap
     ethr =  2.67E-03,  avg # of iterations =  4.9

     total cpu time spent up to now is      564.9 secs

     total energy              =   -1451.15654742 Ry
     estimated scf accuracy    <       1.87942014 Ry

     iteration #  4     ecut=    60.00 Ry     beta= 0.70
     Davidson diagonalization with overlap
     ethr =  1.92E-03,  avg # of iterations =  3.4

     total cpu time spent up to now is      569.1 secs

     total energy              =   -1451.14683954 Ry
     estimated scf accuracy    <       0.95406430 Ry

     iteration #  5     ecut=    60.00 Ry     beta= 0.70
     Davidson diagonalization with overlap
     ethr =  9.74E-04,  avg # of iterations =  1.5

     total cpu time spent up to now is      572.8 secs

     total energy              =   -1451.05279763 Ry
     estimated scf accuracy    <       0.69412537 Ry

     iteration #  6     ecut=    60.00 Ry     beta= 0.70
     Davidson diagonalization with overlap
     ethr =  7.08E-04,  avg # of iterations =  2.1

     total cpu time spent up to now is      576.6 secs

     total energy              =   -1451.00340111 Ry
     estimated scf accuracy    <       0.40517276 Ry

     iteration #  7     ecut=    60.00 Ry     beta= 0.70
     Davidson diagonalization with overlap
     ethr =  4.13E-04,  avg # of iterations =  3.5

     total cpu time spent up to now is      580.8 secs

     total energy              =   -1451.00942212 Ry
     estimated scf accuracy    <       0.18017152 Ry

     iteration #  8     ecut=    60.00 Ry     beta= 0.70
     Davidson diagonalization with overlap
     ethr =  1.84E-04,  avg # of iterations =  2.1

     total cpu time spent up to now is      584.6 secs

     total energy              =   -1450.99285145 Ry
     estimated scf accuracy    <       0.14117950 Ry

     iteration #  9     ecut=    60.00 Ry     beta= 0.70
     Davidson diagonalization with overlap
     ethr =  1.44E-04,  avg # of iterations =  3.3

     total cpu time spent up to now is      588.7 secs

     total energy              =   -1450.99337232 Ry
     estimated scf accuracy    <       0.05863983 Ry

     iteration # 10     ecut=    60.00 Ry     beta= 0.70
     Davidson diagonalization with overlap
     ethr =  5.98E-05,  avg # of iterations =  3.1

     total cpu time spent up to now is      592.8 secs

     total energy              =   -1450.98243983 Ry
     estimated scf accuracy    <       0.03575827 Ry

     iteration # 11     ecut=    60.00 Ry     beta= 0.70
     Davidson diagonalization with overlap
     ethr =  3.65E-05,  avg # of iterations =  8.5

     total cpu time spent up to now is      599.2 secs

     total energy              =   -1451.00056698 Ry
     estimated scf accuracy    <       0.23880753 Ry

     iteration # 12     ecut=    60.00 Ry     beta= 0.70
     Davidson diagonalization with overlap
     ethr =  3.65E-05,  avg # of iterations =  1.0

     total cpu time spent up to now is      602.8 secs

     total energy              =   -1450.99562940 Ry
     estimated scf accuracy    <       0.23385025 Ry

     iteration # 13     ecut=    60.00 Ry     beta= 0.70
     Davidson diagonalization with overlap
     ethr =  3.65E-05,  avg # of iterations =  1.4

     total cpu time spent up to now is      606.5 secs

     total energy              =   -1450.99520686 Ry
     estimated scf accuracy    <       0.20657226 Ry

     iteration # 14     ecut=    60.00 Ry     beta= 0.70
     Davidson diagonalization with overlap
     ethr =  3.65E-05,  avg # of iterations =  1.0

     total cpu time spent up to now is      610.1 secs

     total energy              =   -1450.99838198 Ry
     estimated scf accuracy    <       0.19918002 Ry

     iteration # 15     ecut=    60.00 Ry     beta= 0.70
     Davidson diagonalization with overlap
     ethr =  3.65E-05,  avg # of iterations =  1.0

     total cpu time spent up to now is      613.7 secs

     total energy              =   -1451.00003270 Ry
     estimated scf accuracy    <       0.20779813 Ry

     iteration # 16     ecut=    60.00 Ry     beta= 0.70
     Davidson diagonalization with overlap
     ethr =  3.65E-05,  avg # of iterations =  1.0

     total cpu time spent up to now is      617.2 secs

     total energy              =   -1451.00186634 Ry
     estimated scf accuracy    <       0.21078721 Ry

     iteration # 17     ecut=    60.00 Ry     beta= 0.70
     Davidson diagonalization with overlap
     ethr =  3.65E-05,  avg # of iterations =  1.0

     total cpu time spent up to now is      620.8 secs

     total energy              =   -1451.00181586 Ry
     estimated scf accuracy    <       0.22055664 Ry

     iteration # 18     ecut=    60.00 Ry     beta= 0.70
     Davidson diagonalization with overlap
     ethr =  3.65E-05,  avg # of iterations =  1.0

     total cpu time spent up to now is      624.4 secs

     total energy              =   -1450.98670617 Ry
     estimated scf accuracy    <       0.22470548 Ry

     iteration # 19     ecut=    60.00 Ry     beta= 0.70
     Davidson diagonalization with overlap
     ethr =  3.65E-05,  avg # of iterations =  5.7

     total cpu time spent up to now is      629.6 secs

     total energy              =   -1450.98245493 Ry
     estimated scf accuracy    <       0.03529172 Ry

     iteration # 20     ecut=    60.00 Ry     beta= 0.70
     Davidson diagonalization with overlap
     ethr =  3.60E-05,  avg # of iterations =  5.7

     total cpu time spent up to now is      634.9 secs

     total energy              =   -1450.99060618 Ry
     estimated scf accuracy    <       0.01695167 Ry

     iteration # 21     ecut=    60.00 Ry     beta= 0.70
     Davidson diagonalization with overlap
     ethr =  1.73E-05,  avg # of iterations =  3.4

     total cpu time spent up to now is      639.1 secs

     total energy              =   -1450.99070910 Ry
     estimated scf accuracy    <       0.00436287 Ry

     iteration # 22     ecut=    60.00 Ry     beta= 0.70
     Davidson diagonalization with overlap
     ethr =  4.45E-06,  avg # of iterations =  5.5

     total cpu time spent up to now is      644.0 secs

     total energy              =   -1450.99123509 Ry
     estimated scf accuracy    <       0.00008769 Ry

     iteration # 23     ecut=    60.00 Ry     beta= 0.70
     Davidson diagonalization with overlap
     ethr =  8.95E-08,  avg # of iterations =  9.0

     total cpu time spent up to now is      651.1 secs

     total energy              =   -1450.99393729 Ry
     estimated scf accuracy    <       0.01001765 Ry

     iteration # 24     ecut=    60.00 Ry     beta= 0.70
     Davidson diagonalization with overlap
     ethr =  8.95E-08,  avg # of iterations =  1.0

     total cpu time spent up to now is      654.7 secs

     total energy              =   -1450.99370808 Ry
     estimated scf accuracy    <       0.01005427 Ry

     iteration # 25     ecut=    60.00 Ry     beta= 0.70
     Davidson diagonalization with overlap
     ethr =  8.95E-08,  avg # of iterations =  5.3

     total cpu time spent up to now is      659.5 secs

     total energy              =   -1450.99279329 Ry
     estimated scf accuracy    <       0.00842967 Ry

     iteration # 26     ecut=    60.00 Ry     beta= 0.70
     Davidson diagonalization with overlap
     ethr =  8.95E-08,  avg # of iterations =  6.7

     total cpu time spent up to now is      666.5 secs

     total energy              =   -1450.99301391 Ry
     estimated scf accuracy    <       0.00138142 Ry

     iteration # 27     ecut=    60.00 Ry     beta= 0.70
     Davidson diagonalization with overlap
     ethr =  8.95E-08,  avg # of iterations =  1.1

     total cpu time spent up to now is      670.1 secs

     total energy              =   -1450.99285155 Ry
     estimated scf accuracy    <       0.00137727 Ry

     iteration # 28     ecut=    60.00 Ry     beta= 0.70
     Davidson diagonalization with overlap
     ethr =  8.95E-08,  avg # of iterations =  6.8

     total cpu time spent up to now is      676.1 secs

     total energy              =   -1450.99306392 Ry
     estimated scf accuracy    <       0.00060713 Ry

     iteration # 29     ecut=    60.00 Ry     beta= 0.70
     Davidson diagonalization with overlap
     ethr =  8.95E-08,  avg # of iterations =  7.1

     total cpu time spent up to now is      681.1 secs

     total energy              =   -1450.99306518 Ry
     estimated scf accuracy    <       0.00013063 Ry

     iteration # 30     ecut=    60.00 Ry     beta= 0.70
     Davidson diagonalization with overlap
     ethr =  8.95E-08,  avg # of iterations =  2.5

     total cpu time spent up to now is      685.0 secs

     total energy              =   -1450.99305587 Ry
     estimated scf accuracy    <       0.00005201 Ry

     iteration # 31     ecut=    60.00 Ry     beta= 0.70
     Davidson diagonalization with overlap
     ethr =  5.31E-08,  avg # of iterations =  6.4

     total cpu time spent up to now is      690.3 secs

     total energy              =   -1450.99306337 Ry
     estimated scf accuracy    <       0.00004212 Ry

     iteration # 32     ecut=    60.00 Ry     beta= 0.70
     Davidson diagonalization with overlap
     ethr =  4.30E-08,  avg # of iterations =  5.6

     total cpu time spent up to now is      695.0 secs

     total energy              =   -1450.99306784 Ry
     estimated scf accuracy    <       0.00000156 Ry

     iteration # 33     ecut=    60.00 Ry     beta= 0.70
     Davidson diagonalization with overlap
     ethr =  1.59E-09,  avg # of iterations =  7.1

     total cpu time spent up to now is      701.5 secs

     total energy              =   -1450.99306619 Ry
     estimated scf accuracy    <       0.00003919 Ry

     iteration # 34     ecut=    60.00 Ry     beta= 0.70
     Davidson diagonalization with overlap
     ethr =  1.59E-09,  avg # of iterations =  6.9

     total cpu time spent up to now is      707.4 secs

     total energy              =   -1450.99306730 Ry
     estimated scf accuracy    <       0.00000291 Ry

     iteration # 35     ecut=    60.00 Ry     beta= 0.70
     Davidson diagonalization with overlap
     ethr =  1.59E-09,  avg # of iterations =  5.2

     total cpu time spent up to now is      711.9 secs

     total energy              =   -1450.99306731 Ry
     estimated scf accuracy    <       0.00000052 Ry

     iteration # 36     ecut=    60.00 Ry     beta= 0.70
     Davidson diagonalization with overlap
     ethr =  5.26E-10,  avg # of iterations =  7.1

     total cpu time spent up to now is      717.2 secs

     total energy              =   -1450.99306739 Ry
     estimated scf accuracy    <       0.00000003 Ry

     iteration # 37     ecut=    60.00 Ry     beta= 0.70
     Davidson diagonalization with overlap
     ethr =  2.66E-11,  avg # of iterations =  3.1

     total cpu time spent up to now is      721.6 secs

     total energy              =   -1450.99306739 Ry
     estimated scf accuracy    <       0.00000003 Ry

     iteration # 38     ecut=    60.00 Ry     beta= 0.70
     Davidson diagonalization with overlap
     ethr =  2.66E-11,  avg # of iterations =  1.0

     total cpu time spent up to now is      725.2 secs

     total energy              =   -1450.99306739 Ry
     estimated scf accuracy    <       0.00000003 Ry

     iteration # 39     ecut=    60.00 Ry     beta= 0.70
     Davidson diagonalization with overlap
     ethr =  2.66E-11,  avg # of iterations =  5.8

     total cpu time spent up to now is      729.9 secs

     total energy              =   -1450.99306739 Ry
     estimated scf accuracy    <          6.7E-10 Ry

     iteration # 40     ecut=    60.00 Ry     beta= 0.70
     Davidson diagonalization with overlap
     ethr =  6.80E-13,  avg # of iterations =  6.9

     total cpu time spent up to now is      735.7 secs

     total energy              =   -1450.99306739 Ry
     estimated scf accuracy    <          1.6E-10 Ry

     iteration # 41     ecut=    60.00 Ry     beta= 0.70
     Davidson diagonalization with overlap
     ethr =  1.62E-13,  avg # of iterations =  5.5

     total cpu time spent up to now is      740.4 secs

     End of self-consistent calculation

          k = 0.0000 0.0000 0.0000 ( 16121 PWs)   bands (ev):

   -44.6794 -27.9888 -27.9868 -27.9868 -25.0226 -23.1859 -23.1859 -23.1720
   -17.4302 -17.4302 -17.2638 -17.2217 -17.2217 -13.5923 -13.1790 -13.1790
   -12.8498 -12.2390 -12.2390 -11.6397 -11.6111 -11.6111 -11.4486 -11.4486
   -11.4232 -11.3572 -11.3572 -11.3520  -8.7367  -8.0854  -8.0854  -2.6520
    -0.3771  -0.3771   0.1777   0.2182   0.2182   0.7525   0.9295   0.9295
     1.6358   1.8906   1.8906   2.1578   2.1578   2.2252   2.9267   3.3622
     3.3622

          k =-0.0016-0.0016 0.1964 ( 16141 PWs)   bands (ev):

   -44.6794 -27.9886 -27.9870 -27.9868 -25.0225 -23.1859 -23.1859 -23.1721
   -17.4303 -17.4302 -17.2638 -17.2217 -17.2217 -13.5856 -13.2751 -13.1783
   -12.7463 -12.2452 -12.2340 -11.6398 -11.6095 -11.6072 -11.4469 -11.4460
   -11.4233 -11.3567 -11.3563 -11.3515  -8.7577  -8.1097  -8.0853  -2.6466
    -0.3869  -0.3031   0.0958   0.2135   0.3103   0.6705   0.9507   1.0633
     1.5598   1.7736   1.8596   2.1949   2.2844   2.3337   2.8870   3.1306
     3.3725

          k =-0.0032-0.0032 0.3929 ( 16141 PWs)   bands (ev):

   -44.6794 -27.9883 -27.9873 -27.9868 -25.0224 -23.1859 -23.1859 -23.1722
   -17.4305 -17.4302 -17.2638 -17.2217 -17.2217 -13.5670 -13.3882 -13.1771
   -12.6291 -12.2551 -12.2256 -11.6414 -11.6048 -11.6010 -11.4442 -11.4417
   -11.4230 -11.3563 -11.3546 -11.3502  -8.7953  -8.1460  -8.0852  -2.6386
    -0.4028  -0.2281   0.1570   0.2078   0.3224   0.5838   0.9853   1.2918
     1.4537   1.5899   1.8415   2.2543   2.4412   2.4660   2.7974   2.8937
     3.3756

          k =-0.0032 0.1948 0.1948 ( 16171 PWs)   bands (ev):

   -44.6794 -27.9885 -27.9871 -27.9869 -25.0224 -23.1859 -23.1859 -23.1722
   -17.4303 -17.4302 -17.2638 -17.2217 -17.2217 -13.6088 -13.2603 -13.2102
   -12.7160 -12.2568 -12.1908 -11.6396 -11.6098 -11.6073 -11.4457 -11.4441
   -11.4247 -11.3568 -11.3548 -11.3506  -8.7781  -8.1228  -8.0973  -2.6424
    -0.3403  -0.2977   0.1241   0.2192   0.3110   0.6476   0.9260   1.0606
     1.5655   1.7749   1.8882   2.2214   2.2667   2.3735   2.8792   3.1373
     3.2825

          k =-0.0048 0.1932 0.3913 ( 16167 PWs)   bands (ev):

   -44.6794 -27.9881 -27.9873 -27.9869 -25.0223 -23.1859 -23.1859 -23.1723
   -17.4304 -17.4302 -17.2638 -17.2217 -17.2217 -13.6072 -13.3495 -13.2108
   -12.6105 -12.2660 -12.1691 -11.6392 -11.6096 -11.6035 -11.4438 -11.4402
   -11.4260 -11.3563 -11.3530 -11.3496  -8.8144  -8.1565  -8.1009  -2.6395
    -0.3350  -0.2135   0.1494   0.2126   0.3506   0.5553   0.9717   1.2148
     1.4823   1.7020   1.8038   2.3201   2.3505   2.4484   2.8046   2.9633
     3.2771

          k = 0.0016 0.1997-0.3945 ( 16147 PWs)   bands (ev):

   -44.6794 -27.9881 -27.9873 -27.9869 -25.0224 -23.1859 -23.1859 -23.1723
[...]
     Checking if some PAW data can be deallocated... 

     total cpu time spent up to now is    12415.4 secs

     per-process dynamical memory:   109.1 Mb

     Self-consistent Calculation

     iteration #  1     ecut=    60.00 Ry     beta= 0.70
     Davidson diagonalization with overlap
     ethr =  1.00E-06,  avg # of iterations =  6.9

     total cpu time spent up to now is    12424.4 secs

     total energy              =   -1449.22903996 Ry
     estimated scf accuracy    <       4.90402964 Ry

     iteration #  2     ecut=    60.00 Ry     beta= 0.70
     Davidson diagonalization with overlap
     ethr =  5.00E-03,  avg # of iterations =  6.2

     total cpu time spent up to now is    12430.8 secs

     total energy              =   -1446.48007046 Ry
     estimated scf accuracy    <      28.72210825 Ry

     iteration #  3     ecut=    60.00 Ry     beta= 0.70
     Davidson diagonalization with overlap
     ethr =  5.00E-03,  avg # of iterations =  5.2

     total cpu time spent up to now is    12436.4 secs

     total energy              =   -1451.46319623 Ry
     estimated scf accuracy    <       0.94655606 Ry

     iteration #  4     ecut=    60.00 Ry     beta= 0.70
     Davidson diagonalization with overlap
     ethr =  9.66E-04,  avg # of iterations =  5.7

     total cpu time spent up to now is    12441.2 secs

     total energy              =   -1451.80188247 Ry
     estimated scf accuracy    <       0.49606419 Ry

     iteration #  5     ecut=    60.00 Ry     beta= 0.70
     Davidson diagonalization with overlap
     ethr =  5.06E-04,  avg # of iterations =  2.3

     total cpu time spent up to now is    12444.9 secs

     total energy              =   -1451.75384012 Ry
     estimated scf accuracy    <       0.30817241 Ry

     iteration #  6     ecut=    60.00 Ry     beta= 0.70
     Davidson diagonalization with overlap
     ethr =  3.14E-04,  avg # of iterations =  2.4

     total cpu time spent up to now is    12448.8 secs

     total energy              =   -1451.75144480 Ry
     estimated scf accuracy    <       0.05687083 Ry

     iteration #  7     ecut=    60.00 Ry     beta= 0.70
     Davidson diagonalization with overlap
     ethr =  5.80E-05,  avg # of iterations =  4.2

     total cpu time spent up to now is    12453.8 secs

     total energy              =   -1451.76790054 Ry
     estimated scf accuracy    <       0.03057007 Ry

     iteration #  8     ecut=    60.00 Ry     beta= 0.70
     Davidson diagonalization with overlap
     ethr =  3.12E-05,  avg # of iterations =  3.3

     total cpu time spent up to now is    12457.9 secs

     total energy              =   -1451.77026332 Ry
     estimated scf accuracy    <       0.00241212 Ry

     iteration #  9     ecut=    60.00 Ry     beta= 0.70
     Davidson diagonalization with overlap
     ethr =  2.46E-06,  avg # of iterations =  3.9

     total cpu time spent up to now is    12462.5 secs

     total energy              =   -1451.77069359 Ry
     estimated scf accuracy    <       0.00006855 Ry

     iteration # 10     ecut=    60.00 Ry     beta= 0.70
     Davidson diagonalization with overlap
     ethr =  7.00E-08,  avg # of iterations =  4.0

     total cpu time spent up to now is    12468.2 secs

     total energy              =   -1451.77071306 Ry
     estimated scf accuracy    <       0.00002971 Ry

     iteration # 11     ecut=    60.00 Ry     beta= 0.70
     Davidson diagonalization with overlap
     ethr =  3.03E-08,  avg # of iterations =  3.0

     total cpu time spent up to now is    12472.5 secs

     total energy              =   -1451.77071707 Ry
     estimated scf accuracy    <       0.00000058 Ry

     iteration # 12     ecut=    60.00 Ry     beta= 0.70
     Davidson diagonalization with overlap
     ethr =  5.91E-10,  avg # of iterations =  4.1

     total cpu time spent up to now is    12477.9 secs

     total energy              =   -1451.77071732 Ry
     estimated scf accuracy    <       0.00000004 Ry

     iteration # 13     ecut=    60.00 Ry     beta= 0.70
     Davidson diagonalization with overlap
     ethr =  4.46E-11,  avg # of iterations =  3.0

     total cpu time spent up to now is    12482.7 secs

     total energy              =   -1451.77071732 Ry
     estimated scf accuracy    <          2.4E-09 Ry

     iteration # 14     ecut=    60.00 Ry     beta= 0.70
     Davidson diagonalization with overlap
     ethr =  2.46E-12,  avg # of iterations =  3.0

     total cpu time spent up to now is    12487.7 secs

     total energy              =   -1451.77071733 Ry
     estimated scf accuracy    <          7.3E-10 Ry

     iteration # 15     ecut=    60.00 Ry     beta= 0.70
     Davidson diagonalization with overlap
     ethr =  7.42E-13,  avg # of iterations =  3.0

     total cpu time spent up to now is    12492.1 secs

     total energy              =   -1451.77071733 Ry
     estimated scf accuracy    <          2.6E-11 Ry

     iteration # 16     ecut=    60.00 Ry     beta= 0.70
     Davidson diagonalization with overlap
     ethr =  1.00E-13,  avg # of iterations =  3.1

     total cpu time spent up to now is    12496.5 secs

     total energy              =   -1451.77071733 Ry
     estimated scf accuracy    <          5.4E-12 Ry

     iteration # 17     ecut=    60.00 Ry     beta= 0.70
     Davidson diagonalization with overlap
     ethr =  1.00E-13,  avg # of iterations =  1.0

     total cpu time spent up to now is    12499.8 secs

     End of self-consistent calculation

          k = 0.0000 0.0000 0.0000 ( 14961 PWs)   bands (ev):

   -44.2442 -26.4908 -25.3275 -25.2482 -25.2482 -22.7938 -22.7002 -22.7002
   -16.7458 -16.7458 -16.6220 -16.3593 -16.3593 -12.5626 -12.2862 -12.2394
   -12.2394 -11.5768 -11.5768 -10.1542  -9.8500  -9.8500  -9.1228  -8.8933
    -8.8933  -8.8061  -8.7565  -8.7565  -8.6687  -8.5187  -8.5187  -1.8543
     0.7488   0.7668   0.7668   1.1553   1.1553   1.6085   1.6085   1.8353
     2.3493   2.3493   2.4400   2.6702   2.7718   2.7718   3.2531   3.2531
     3.4926

          k =-0.0201-0.0201 0.2074 ( 14971 PWs)   bands (ev):

   -44.2442 -26.4907 -25.3269 -25.2488 -25.2482 -22.7937 -22.7002 -22.7002
   -16.7459 -16.7455 -16.6220 -16.3596 -16.3592 -12.5658 -12.2953 -12.2372
   -12.2323 -11.5847 -11.5595 -10.1541  -9.8520  -9.8490  -9.2003  -8.9401
    -8.8817  -8.7871  -8.7464  -8.6987  -8.6322  -8.5282  -8.5173  -1.8302
     0.6986   0.7500   0.7952   1.1263   1.1601   1.5860   1.6014   1.8386
     2.3132   2.3696   2.4653   2.5889   2.7756   2.8560   3.1675   3.2500
     3.4667

          k =-0.0403-0.0403 0.4148 ( 14940 PWs)   bands (ev):

   -44.2441 -26.4907 -25.3259 -25.2498 -25.2482 -22.7937 -22.7004 -22.7002
   -16.7460 -16.7451 -16.6220 -16.3602 -16.3592 -12.5721 -12.3061 -12.2351
   -12.2204 -11.5979 -11.5327 -10.1540  -9.8554  -9.8473  -9.2898  -8.9931
    -8.8741  -8.7419  -8.7400  -8.6683  -8.5859  -8.5211  -8.5129  -1.7897
     0.6244   0.7186   0.8435   1.0761   1.1735   1.5397   1.5951   1.8357
     2.2843   2.4099   2.4779   2.5152   2.7815   2.9219   3.0711   3.2426
     3.4292

          k =-0.0403 0.1873 0.1873 ( 14945 PWs)   bands (ev):

   -44.2441 -26.4907 -25.3267 -25.2487 -25.2485 -22.7938 -22.7002 -22.7002
   -16.7458 -16.7454 -16.6220 -16.3598 -16.3594 -12.5701 -12.3052 -12.2343
   -12.2305 -11.5769 -11.5567 -10.1545  -9.8506  -9.8499  -9.1962  -8.9402
    -8.8842  -8.7619  -8.7562  -8.6884  -8.6359  -8.5461  -8.5218  -1.8153
     0.6604   0.7768   0.7932   1.1343   1.1360   1.5756   1.6126   1.8198
     2.3279   2.3445   2.4758   2.5307   2.8222   2.8486   3.1939   3.2122
     3.4512

          k =-0.0604 0.1671 0.3947 ( 14937 PWs)   bands (ev):

   -44.2441 -26.4907 -25.3258 -25.2496 -25.2485 -22.7937 -22.7003 -22.7002
   -16.7459 -16.7450 -16.6219 -16.3603 -16.3595 -12.5763 -12.3175 -12.2316
   -12.2209 -11.5850 -11.5328 -10.1546  -9.8535  -9.8483  -9.2674  -8.9812
    -8.9043  -8.7308  -8.7050  -8.6658  -8.6067  -8.5477  -8.5182  -1.7791
     0.5908   0.7541   0.8382   1.0852   1.1513   1.5408   1.6039   1.8143
     2.2924   2.3801   2.4493   2.4971   2.8230   2.9240   3.1103   3.2091
     3.4152

          k = 0.0201 0.2477-0.4350 ( 14929 PWs)   bands (ev):

   -44.2441 -26.4907 -25.3255 -25.2500 -25.2484 -22.7937 -22.7004 -22.7002
   -16.7459 -16.7450 -16.6219 -16.3603 -16.3595 -12.5754 -12.3163 -12.2309
   -12.2189 -11.5869 -11.5309 -10.1543  -9.8551  -9.8480  -9.3055  -9.0067
    -8.9138  -8.7456  -8.6799  -8.6473  -8.5840  -8.5284  -8.5147  -1.7719
     0.5885   0.7402   0.8388   1.0662   1.1631   1.5306   1.5890   1.8242
     2.2861   2.3764   2.4671   2.5002   2.8214   2.9610   3.0565   3.2106
     3.4063

          k =-0.0000 0.2276-0.2276 ( 14955 PWs)   bands (ev):

   -44.2442 -26.4907 -25.3262 -25.2495 -25.2483 -22.7937 -22.7003 -22.7002
   -16.7458 -16.7454 -16.6220 -16.3598 -16.3594 -12.5686 -12.3039 -12.2328
   -12.2272 -11.5806 -11.5528 -10.1539  -9.8537  -9.8489  -9.2723  -8.9800
    -8.9051  -8.7793  -8.6998  -8.6557  -8.5996  -8.5233  -8.5137  -1.8041
     0.6538   0.7478   0.8019   1.0992   1.1588   1.5676   1.5806   1.8443
     2.2992   2.3676   2.4889   2.5276   2.8072   2.9244   3.0874   3.2268
     3.4367

          k =-0.0806 0.3745 0.3745 ( 14896 PWs)   bands (ev):

   -44.2441 -26.4907 -25.3253 -25.2496 -25.2489 -22.7937 -22.7004 -22.7003
   -16.7458 -16.7448 -16.6219 -16.3606 -16.3597 -12.5829 -12.3327 -12.2263
   -12.2183 -11.5761 -11.5226 -10.1554  -9.8519  -9.8497  -9.2793  -8.9961
    -8.8803  -8.7694  -8.6752  -8.6276  -8.6265  -8.5541  -8.5173  -1.7541
     0.5295   0.7967   0.8346   1.1038   1.1077   1.5295   1.6059   1.7961
     2.2873   2.3632   2.3719   2.5175   2.8375   2.9920   3.1119   3.1536
     3.3896

          k =-0.0000 0.4551-0.4551 ( 14920 PWs)   bands (ev):

   -44.2441 -26.4907 -25.3251 -25.2500 -25.2488 -22.7937 -22.7004 -22.7002
   -16.7458 -16.7448 -16.6219 -16.3606 -16.3597 -12.5825 -12.3319 -12.2261
   -12.2168 -11.5777 -11.5210 -10.1552  -9.8534  -9.8490  -9.2993  -9.0094
    -8.9155  -8.7433  -8.6488  -8.6425  -8.5985  -8.5520  -8.5157  -1.7496
     0.5288   0.7832   0.8394   1.0705   1.1373   1.5218   1.5977   1.7994
     2.2827   2.3409   2.4092   2.5160   2.8367   3.0352   3.0473   3.1680
     3.3835

          k = 0.1671 0.1671 0.1671 ( 14980 PWs)   bands (ev):

   -44.2442 -26.4907 -25.3269 -25.2485 -25.2485 -22.7938 -22.7002 -22.7002
   -16.7455 -16.7455 -16.6220 -16.3598 -16.3598 -12.5770 -12.3145 -12.2314
   -12.2314 -11.5620 -11.5620 -10.1552  -9.8490  -9.8490  -9.1123  -8.8941
    -8.8941  -8.7639  -8.7639  -8.7286  -8.6670  -8.5542  -8.5542  -1.8059
     0.6191   0.8066   0.8066   1.1323   1.1323   1.6081   1.6081   1.7714
     2.3452   2.3452   2.4549   2.4890   2.8416   2.8416   3.2232   3.2232
     3.4457

          k = 0.1470 0.1470 0.3745 ( 14929 PWs)   bands (ev):

   -44.2441 -26.4907 -25.3261 -25.2492 -25.2485 -22.7938 -22.7003 -22.7002
   -16.7457 -16.7451 -16.6219 -16.3603 -16.3598 -12.5842 -12.3267 -12.2301
   -12.2211 -11.5741 -11.5336 -10.1554  -9.8514  -9.8474  -9.1912  -8.9415
    -8.8798  -8.7510  -8.7328  -8.6788  -8.6299  -8.5692  -8.5553  -1.7708
     0.5440   0.7852   0.8567   1.0970   1.1413   1.5677   1.6024   1.7683
     2.3108   2.3727   2.4150   2.4729   2.8486   2.9182   3.1452   3.2148
     3.4118

          k = 0.2276 0.2276-0.4551 ( 14918 PWs)   bands (ev):

   -44.2441 -26.4907 -25.3255 -25.2499 -25.2485 -22.7937 -22.7004 -22.7002
   -16.7457 -16.7450 -16.6220 -16.3604 -16.3598 -12.5819 -12.3254 -12.2286
   -12.2177 -11.5763 -11.5303 -10.1548  -9.8544  -9.8472  -9.2847  -8.9941
    -8.8759  -8.7479  -8.7391  -8.6277  -8.5926  -8.5415  -8.5231  -1.7587
     0.5404   0.7607   0.8549   1.0740   1.1517   1.5455   1.5751   1.7990
     2.3056   2.3382   2.4508   2.4908   2.8601   2.9621   3.0654   3.1987
     3.3952

          k = 0.2074 0.2074-0.2477 ( 14928 PWs)   bands (ev):

   -44.2441 -26.4907 -25.3258 -25.2496 -25.2485 -22.7937 -22.7003 -22.7002
   -16.7455 -16.7455 -16.6220 -16.3598 -16.3598 -12.5726 -12.3134 -12.2287
   -12.2260 -11.5654 -11.5564 -10.1543  -9.8538  -9.8488  -9.2871  -8.9939
    -8.8789  -8.7636  -8.7495  -8.6158  -8.5989  -8.5341  -8.5057  -1.7868
     0.6134   0.7658   0.8051   1.0967   1.1438   1.5582   1.5785   1.8322
     2.3169   2.3337   2.4794   2.5015   2.8604   2.9316   3.0789   3.1978
     3.4176

          k = 0.1268 0.3544 0.3544 ( 14932 PWs)   bands (ev):

   -44.2441 -26.4907 -25.3258 -25.2491 -25.2489 -22.7938 -22.7003 -22.7003
   -16.7455 -16.7449 -16.6219 -16.3606 -16.3601 -12.5930 -12.3402 -12.2248
   -12.2188 -11.5625 -11.5270 -10.1560  -9.8489  -9.8489  -9.1862  -8.9416
    -8.8843  -8.7754  -8.7085  -8.6401  -8.6376  -8.5903  -8.5651  -1.7440
     0.4742   0.8253   0.8618   1.1032   1.1178   1.5508   1.6050   1.7420
     2.3021   2.3321   2.3770   2.4887   2.8847   2.9745   3.1374   3.1688
     3.3865

          k = 0.2074 0.4350-0.4753 ( 14931 PWs)   bands (ev):

   -44.2441 -26.4907 -25.3253 -25.2498 -25.2488 -22.7938 -22.7004 -22.7003
   -16.7455 -16.7449 -16.6219 -16.3606 -16.3601 -12.5905 -12.3399 -12.2234
   -12.2168 -11.5618 -11.5258 -10.1556  -9.8522  -9.8481  -9.2615  -8.9831
    -8.9050  -8.7430  -8.7017  -8.6272  -8.5957  -8.5787  -8.5308  -1.7360
     0.4757   0.8092   0.8555   1.0815   1.1291   1.5331   1.5846   1.7696
     2.2703   2.3329   2.3995   2.5037   2.9035   3.0199   3.0641   3.1490
     3.3729

          k = 0.1873 0.4148-0.2678 ( 14903 PWs)   bands (ev):

   -44.2441 -26.4907 -25.3253 -25.2500 -25.2487 -22.7937 -22.7004 -22.7002
   -16.7456 -16.7451 -16.6219 -16.3603 -16.3598 -12.5797 -12.3269 -12.2260
   -12.2197 -11.5685 -11.5360 -10.1548  -9.8539  -9.8487  -9.3019  -9.0081
    -8.9151  -8.7334  -8.7068  -8.6125  -8.5927  -8.5475  -8.5076  -1.7581
     0.5504   0.7768   0.8290   1.0725   1.1426   1.5292   1.5872   1.8089
     2.2824   2.3535   2.4213   2.5105   2.8987   2.9596   3.0718   3.1622
     3.3886

          k = 0.2880-0.3947-0.3947 ( 14921 PWs)   bands (ev):

   -44.2441 -26.4907 -25.3251 -25.2498 -25.2489 -22.7938 -22.7004 -22.7003
   -16.7455 -16.7449 -16.6219 -16.3606 -16.3601 -12.5893 -12.3406 -12.2215
   -12.2182 -11.5574 -11.5291 -10.1557  -9.8522  -9.8487  -9.2786  -8.9961
    -8.8793  -8.7677  -8.7048  -8.6243  -8.6002  -8.5578  -8.5173  -1.7356
     0.4795   0.8255   0.8338   1.0959   1.1094   1.5300   1.5845   1.7779
     2.2569   2.3624   2.3651   2.5154   2.9253   3.0105   3.0946   3.1019
     3.3701

          k = 0.3342 0.3342 0.3342 ( 14947 PWs)   bands (ev):

   -44.2441 -26.4907 -25.3259 -25.2489 -25.2489 -22.7939 -22.7003 -22.7003
   -16.7451 -16.7451 -16.6220 -16.3606 -16.3606 -12.6056 -12.3517 -12.2190
   -12.2190 -11.5362 -11.5362 -10.1566  -9.8474  -9.8474  -9.1019  -8.8943
    -8.8943  -8.7818  -8.7818  -8.6642  -8.6076  -8.6076  -8.5979  -1.7183
     0.3942   0.8750   0.8750   1.1089   1.1089   1.5813   1.5813   1.6787
     2.2449   2.3582   2.3582   2.4822   2.9774   2.9774   3.1384   3.1384
     3.3679

          k = 0.4148 0.4148-0.4954 ( 14922 PWs)   bands (ev):

   -44.2441 -26.4907 -25.3255 -25.2494 -25.2489 -22.7939 -22.7003 -22.7003
   -16.7451 -16.7451 -16.6219 -16.3606 -16.3606 -12.6035 -12.3516 -12.2187
   -12.2169 -11.5376 -11.5333 -10.1564  -9.8494  -9.8473  -9.1847  -8.9423
    -8.8818  -8.7705  -8.7449  -8.6349  -8.6109  -8.5993  -8.5604  -1.7131
     0.3952   0.8575   0.8748   1.0987   1.1141   1.5550   1.5669   1.7149
     2.2241   2.3563   2.3746   2.4933   2.9979   3.0117   3.0802   3.1141
     3.3581

     highest occupied level (ev):     3.4926

!    total energy              =   -1451.77071733 Ry
     total all-electron energy =     -1451.770717 Ry
     estimated scf accuracy    <          9.8E-13 Ry

     The total energy is the sum of the following terms:
     one-electron contribution =    -427.04949401 Ry
     hartree contribution      =     274.99386022 Ry
     xc contribution           =    -119.65133272 Ry
     ewald contribution        =    -357.23029806 Ry
     one-center paw contrib.   =    -822.83345276 Ry

     convergence has been achieved in  17 iterations

     Forces acting on atoms (cartesian axes, Ry/au):

     atom    1 type  1   force =    -0.00000046   -0.00000046   -0.00000046
     atom    2 type  1   force =    -0.00000444   -0.00000444   -0.00000195
     atom    3 type  1   force =    -0.00000444   -0.00000195   -0.00000444
     atom    4 type  1   force =    -0.00000195   -0.00000444   -0.00000444
     atom    5 type  3   force =    -0.00000283   -0.00000283   -0.00000283
     atom    6 type  2   force =    -0.00001364   -0.00001364   -0.00001364
     atom    7 type  4   force =     0.00004718    0.00000929    0.00000929
     atom    8 type  4   force =     0.00004544   -0.00004171   -0.00004171
     atom    9 type  4   force =     0.00000929    0.00004718    0.00000929
     atom   10 type  4   force =    -0.00004171    0.00004544   -0.00004171
     atom   11 type  4   force =     0.00000929    0.00000929    0.00004718
     atom   12 type  4   force =    -0.00004171   -0.00004171    0.00004544

     Total force =     0.000157     Total SCF correction =     0.000002


     Computing stress (Cartesian axis) and pressure

          total   stress  (Ry/bohr**3)                   (kbar)     P=       -0.89
  -0.00000605   0.00000239   0.00000239           -0.89        0.35        0.35
   0.00000239  -0.00000605   0.00000239            0.35       -0.89        0.35
   0.00000239   0.00000239  -0.00000605            0.35        0.35       -0.89


     Writing all to output data dir ./K4SnZrO6.save/

     init_run     :     33.40s CPU     33.70s WALL (       2 calls)
     electrons    :   8512.92s CPU   8894.65s WALL (      74 calls)
     update_pot   :   1260.08s CPU   1262.29s WALL (      72 calls)
     forces       :    746.76s CPU    753.93s WALL (      74 calls)
     stress       :   1493.59s CPU   1511.14s WALL (      74 calls)

     Called by init_run:
     wfcinit      :      4.97s CPU      5.05s WALL (       2 calls)
     potinit      :      9.22s CPU      9.27s WALL (       2 calls)
     hinit0       :     18.50s CPU     18.56s WALL (       2 calls)

     Called by electrons:
     c_bands      :   5889.46s CPU   5989.92s WALL (    1779 calls)
     sum_band     :   1156.39s CPU   1293.63s WALL (    1779 calls)
     v_of_rho     :     77.25s CPU     79.64s WALL (    1846 calls)
     newd         :    510.24s CPU    640.37s WALL (    1846 calls)
     PAW_pot      :    956.70s CPU    963.84s WALL (    1918 calls)
     mix_rho      :     11.78s CPU     12.35s WALL (    1779 calls)

     Called by c_bands:
     init_us_2    :     83.81s CPU     86.20s WALL (   71820 calls)
     init_us_2:cp :     83.44s CPU     86.04s WALL (   71820 calls)
     cegterg      :   5609.53s CPU   5705.69s WALL (   33801 calls)

     Called by *egterg:
     cdiaghg      :   1423.83s CPU   1441.76s WALL (  165649 calls)
     h_psi        :   2771.42s CPU   2831.71s WALL (  167188 calls)
     s_psi        :    338.84s CPU    341.39s WALL (  167188 calls)
     g_psi        :     57.59s CPU     57.99s WALL (  133349 calls)

     Called by h_psi:
     h_psi:calbec :    364.17s CPU    376.62s WALL (  167188 calls)
     vloc_psi     :   2052.17s CPU   2097.36s WALL (  167188 calls)
     add_vuspsi   :    340.34s CPU    343.05s WALL (  167188 calls)

     General routines
     calbec       :    513.01s CPU    531.16s WALL (  209387 calls)
     fft          :     38.45s CPU     42.09s WALL (   25779 calls)
     ffts         :      2.09s CPU      2.25s WALL (    3625 calls)
     fftw         :   2133.72s CPU   2180.18s WALL (10781997 calls)
     interpolate  :      4.27s CPU      4.60s WALL (    1846 calls)

     Parallel routines

     PWSCF        :      3h21m CPU      3h28m WALL


   This run was terminated on:   8: 4:11  30Nov2025            

=------------------------------------------------------------------------------=
   JOB DONE.
=------------------------------------------------------------------------------=
