
     Program PWSCF v.7.1 starts on  1Dec2025 at  1:24:27 

     This program is part of the open-source Quantum ESPRESSO suite
     for quantum simulation of materials; please cite
         "P. Giannozzi et al., J. Phys.:Condens. Matter 21 395502 (2009);
         "P. Giannozzi et al., J. Phys.:Condens. Matter 29 465901 (2017);
         "P. Giannozzi et al., J. Chem. Phys. 152 154105 (2020);
          URL http://www.quantum-espresso.org", 
     in publications or presentations arising from this work. More details at
     http://www.quantum-espresso.org/quote

     Parallel version (MPI & OpenMP), running on      16 processor cores
     Number of MPI processes:                16
     Threads/MPI process:                     1

     MPI processes distributed on     1 nodes
     22355 MiB available memory on the printing compute node when the environment starts

     Waiting for input...
     Reading input from standard input

     Current dimensions of program PWSCF are:
     Max number of different atomic species (ntypx) = 10
     Max number of k-points (npk) =  40000
     Max angular momentum in pseudopotentials (lmaxx) =  4
     Message from routine read_pp_mesh:
     mismatch in mesh size, discarding the one in header
     Message from routine read_pp_mesh:
     mismatch in mesh size, discarding the one in header
     Message from routine read_pp_mesh:
     mismatch in mesh size, discarding the one in header
     Message from routine read_pp_mesh:
     mismatch in mesh size, discarding the one in header
     Message from routine read_pp_mesh:
     mismatch in mesh size, discarding the one in header
     Message from routine setup:
     using ibrav=0 with symmetry is DISCOURAGED, use correct ibrav instead

     R & G space division:  proc/nbgrp/npool/nimage =      16
     Subspace diagonalization in iterative solution of the eigenvalue problem:
     a serial algorithm will be used


     Parallelization info
     --------------------
     sticks:   dense  smooth     PW     G-vecs:    dense   smooth      PW
     Min         302     151     41                15818     5573     813
     Max         304     152     43                15821     5577     816
     Sum        4849    2417    673               253119    89199   13037

     Using Slab Decomposition



     bravais-lattice index     =            0
     lattice parameter (alat)  =      11.2511  a.u.
     unit-cell volume          =    1424.2554 (a.u.)^3
     number of atoms/cell      =           12
     number of atomic types    =            5
     number of electrons       =        98.00
     number of Kohn-Sham states=           49
     kinetic-energy cutoff     =      60.0000  Ry
     charge density cutoff     =     480.0000  Ry
     scf convergence threshold =      1.0E-10
     mixing beta               =       0.7000
     number of iterations used =            8  plain     mixing
     energy convergence thresh.=      1.0E-04
     force convergence thresh. =      1.0E-05
     press convergence thresh. =      5.0E-01
     Exchange-correlation= SLA PW PBX PBC
                           (   1   4   3   4   0   0   0)
     nstep                     =          250


     celldm(1)=  11.251125  celldm(2)=   0.000000  celldm(3)=   0.000000
     celldm(4)=   0.000000  celldm(5)=   0.000000  celldm(6)=   0.000000

     crystal axes: (cart. coord. in units of alat)
               a(1) = (   1.000000   0.000000   0.000000 )  
               a(2) = (   0.000000   1.000000   0.000000 )  
               a(3) = (   0.000000   0.000000   1.000000 )  

     reciprocal axes: (cart. coord. in units 2 pi/alat)
               b(1) = (  1.000000  0.000000  0.000000 )  
               b(2) = (  0.000000  1.000000  0.000000 )  
               b(3) = (  0.000000  0.000000  1.000000 )  


     PseudoPot. # 1 for Na read from file:
     ./Na.upf
     MD5 check sum: b8e483bdca8edababda73ba53cc0c4c9
     Pseudo is Projector augmented-wave + core cor, Zval =  9.0
     Generated using ATOMPAW code
     Shape of augmentation charge: SINC**2
     Using radial grid of 2342 points,  4 beta functions with: 
                l(1) =   0
                l(2) =   0
                l(3) =   1
                l(4) =   1
     Q(r) pseudized with 0 coefficients 


     PseudoPot. # 2 for K  read from file:
     ./K.upf
     MD5 check sum: 9356cfae17991a8ac93a0af773ad5d28
     Pseudo is Projector augmented-wave + core cor, Zval =  9.0
     Generated using ATOMPAW code
     Shape of augmentation charge: SINC**2
     Using radial grid of 2342 points,  5 beta functions with: 
                l(1) =   0
                l(2) =   0
                l(3) =   1
                l(4) =   1
                l(5) =   2
     Q(r) pseudized with 0 coefficients 


     PseudoPot. # 3 for Zr read from file:
     ./Zr.upf
     MD5 check sum: 10be9e9715c592225794718718b87d8f
     Pseudo is Projector augmented-wave + core cor, Zval = 12.0
     Generated using ATOMPAW code
     Shape of augmentation charge: BESSEL
     Using radial grid of 2342 points,  6 beta functions with: 
                l(1) =   0
                l(2) =   0
                l(3) =   1
                l(4) =   1
                l(5) =   2
                l(6) =   2
     Q(r) pseudized with 0 coefficients 


     PseudoPot. # 4 for Sn read from file:
     ./Sn.upf
     MD5 check sum: f8d5c2bd65c7f969f3af92fc3a9f2821
     Pseudo is Projector augmented-wave + core cor, Zval = 14.0
     Generated using ATOMPAW code
     Shape of augmentation charge: BESSEL
     Using radial grid of 2342 points,  6 beta functions with: 
                l(1) =   0
                l(2) =   0
                l(3) =   1
                l(4) =   1
                l(5) =   2
                l(6) =   2
     Q(r) pseudized with 0 coefficients 


     PseudoPot. # 5 for O  read from file:
     ./O.upf
     MD5 check sum: 45fbb1c0d1f8837f1e386a2947d3aa26
     Pseudo is Projector augmented-wave + core cor, Zval =  6.0
     Generated using ATOMPAW code
     Shape of augmentation charge: SINC**2
     Using radial grid of 2342 points,  4 beta functions with: 
                l(1) =   0
                l(2) =   0
                l(3) =   1
                l(4) =   1
     Q(r) pseudized with 0 coefficients 


     atomic species   valence    mass     pseudopotential
        Na             9.00    22.96000     Na( 1.00)
        K              9.00    39.09800     K ( 1.00)
        Zr            12.00    91.22400     Zr( 1.00)
        Sn            14.00   118.71000     Sn( 1.00)
        O              6.00    15.99900     O ( 1.00)

      2 Sym. Ops. (no inversion) found



   Cartesian axes

     site n.     atom                  positions (alat units)
         1           Na  tau(   1) = (   0.0000000   0.0000000   0.0000000  )
         2           K   tau(   2) = (   0.5000000   0.5000000   0.0000000  )
         3           Na  tau(   3) = (   0.5000000   0.0000000   0.5000000  )
         4           K   tau(   4) = (   0.0000000   0.5000000   0.5000000  )
         5           Sn  tau(   5) = (   0.2500000   0.2500000   0.2500000  )
         6           Zr  tau(   6) = (   0.7500000   0.7500000   0.7500000  )
         7           O   tau(   7) = (   0.2500000   0.0000000   0.0000000  )
         8           O   tau(   8) = (   0.7500000   0.0000000   0.0000000  )
         9           O   tau(   9) = (   0.0000000   0.2500000   0.0000000  )
        10           O   tau(  10) = (   0.0000000   0.7500000   0.0000000  )
        11           O   tau(  11) = (   0.0000000   0.0000000   0.2500000  )
        12           O   tau(  12) = (   0.0000000   0.0000000   0.7500000  )

     number of k points=    39
                       cart. coord. in units 2pi/alat
        k(    1) = (   0.0000000   0.0000000   0.0000000), wk =   0.0160000
        k(    2) = (   0.0000000   0.0000000   0.2000000), wk =   0.0640000
        k(    3) = (   0.0000000   0.0000000   0.4000000), wk =   0.0640000
        k(    4) = (   0.0000000   0.2000000   0.2000000), wk =   0.0640000
        k(    5) = (   0.0000000   0.2000000   0.4000000), wk =   0.0640000
        k(    6) = (   0.0000000   0.4000000   0.4000000), wk =   0.0640000
        k(    7) = (   0.2000000   0.2000000   0.2000000), wk =   0.0320000
        k(    8) = (   0.2000000   0.2000000   0.4000000), wk =   0.0640000
        k(    9) = (   0.2000000   0.4000000   0.4000000), wk =   0.0640000
        k(   10) = (   0.4000000   0.4000000   0.4000000), wk =   0.0320000
        k(   11) = (   0.0000000   0.2000000   0.0000000), wk =   0.0320000
        k(   12) = (   0.0000000   0.4000000   0.0000000), wk =   0.0320000
        k(   13) = (   0.0000000   0.2000000  -0.2000000), wk =   0.0640000
        k(   14) = (   0.2000000   0.0000000  -0.2000000), wk =   0.0320000
        k(   15) = (  -0.2000000   0.0000000  -0.2000000), wk =   0.0320000
        k(   16) = (   0.0000000   0.2000000  -0.4000000), wk =   0.0640000
        k(   17) = (   0.2000000   0.0000000  -0.4000000), wk =   0.0640000
        k(   18) = (  -0.2000000   0.0000000  -0.4000000), wk =   0.0640000
        k(   19) = (   0.0000000   0.4000000   0.2000000), wk =   0.0640000
        k(   20) = (   0.0000000   0.4000000  -0.2000000), wk =   0.0640000
        k(   21) = (   0.0000000   0.4000000  -0.4000000), wk =   0.0640000
        k(   22) = (   0.4000000   0.0000000  -0.4000000), wk =   0.0320000
        k(   23) = (  -0.4000000   0.0000000  -0.4000000), wk =   0.0320000
        k(   24) = (  -0.2000000   0.2000000  -0.2000000), wk =   0.0320000
        k(   25) = (   0.2000000  -0.2000000  -0.2000000), wk =   0.0640000
        k(   26) = (  -0.2000000   0.2000000  -0.4000000), wk =   0.0640000
        k(   27) = (   0.2000000  -0.2000000  -0.4000000), wk =   0.0640000
        k(   28) = (   0.2000000   0.2000000  -0.4000000), wk =   0.0640000
        k(   29) = (  -0.2000000   0.4000000   0.2000000), wk =   0.0640000
        k(   30) = (  -0.2000000  -0.4000000  -0.2000000), wk =   0.0320000
        k(   31) = (   0.2000000  -0.4000000   0.2000000), wk =   0.0320000
        k(   32) = (  -0.2000000   0.4000000  -0.4000000), wk =   0.0640000
        k(   33) = (   0.2000000  -0.4000000  -0.4000000), wk =   0.0640000
        k(   34) = (   0.4000000   0.2000000  -0.4000000), wk =   0.0640000
        k(   35) = (  -0.4000000  -0.2000000  -0.4000000), wk =   0.0320000
        k(   36) = (   0.4000000  -0.2000000   0.4000000), wk =   0.0320000
        k(   37) = (  -0.4000000   0.4000000   0.2000000), wk =   0.0640000
        k(   38) = (  -0.4000000   0.4000000  -0.4000000), wk =   0.0320000
        k(   39) = (   0.4000000  -0.4000000  -0.4000000), wk =   0.0640000

     Dense  grid:   253119 G-vectors     FFT dimensions: (  80,  80,  80)

     Smooth grid:    89199 G-vectors     FFT dimensions: (  60,  60,  60)

     Estimated max dynamical RAM per process >      99.33 MB

     Estimated total dynamical RAM >       1.55 GB

     Check: negative core charge=   -0.000001

     Initial potential from superposition of free atoms

     starting charge      97.9418, renormalised to      98.0000
     Starting wfcs are  126 randomized atomic wfcs
     Checking if some PAW data can be deallocated... 

     total cpu time spent up to now is       19.0 secs

     per-process dynamical memory:    87.4 Mb

     Self-consistent Calculation

     iteration #  1     ecut=    60.00 Ry     beta= 0.70
     Davidson diagonalization with overlap
     ethr =  1.00E-02,  avg # of iterations =  2.0

     total cpu time spent up to now is       24.1 secs

     total energy              =   -1432.43769366 Ry
     estimated scf accuracy    <      12.35370785 Ry

     iteration #  2     ecut=    60.00 Ry     beta= 0.70
     Davidson diagonalization with overlap
     ethr =  1.00E-02,  avg # of iterations =  8.2

     total cpu time spent up to now is       35.7 secs

     total energy              =   -1422.84436748 Ry
     estimated scf accuracy    <     209.68520701 Ry

     iteration #  3     ecut=    60.00 Ry     beta= 0.70
     Davidson diagonalization with overlap
     ethr =  1.00E-02,  avg # of iterations =  7.3

     total cpu time spent up to now is       47.8 secs

     total energy              =   -1440.50886542 Ry
     estimated scf accuracy    <       2.85902348 Ry

     iteration #  4     ecut=    60.00 Ry     beta= 0.70
     Davidson diagonalization with overlap
     ethr =  2.92E-03,  avg # of iterations =  5.4

     total cpu time spent up to now is       55.4 secs

     total energy              =   -1440.80868323 Ry
     estimated scf accuracy    <       1.22107105 Ry

     iteration #  5     ecut=    60.00 Ry     beta= 0.70
     Davidson diagonalization with overlap
     ethr =  1.25E-03,  avg # of iterations =  4.7

     total cpu time spent up to now is       62.2 secs

     total energy              =   -1440.87579679 Ry
     estimated scf accuracy    <       0.55877241 Ry

     iteration #  6     ecut=    60.00 Ry     beta= 0.70
     Davidson diagonalization with overlap
     ethr =  5.70E-04,  avg # of iterations =  2.8

     total cpu time spent up to now is       67.5 secs

     total energy              =   -1440.84616565 Ry
     estimated scf accuracy    <       0.36206054 Ry

     iteration #  7     ecut=    60.00 Ry     beta= 0.70
     Davidson diagonalization with overlap
     ethr =  3.69E-04,  avg # of iterations =  4.2

     total cpu time spent up to now is       73.5 secs

     total energy              =   -1440.82406586 Ry
     estimated scf accuracy    <       0.13669614 Ry

     iteration #  8     ecut=    60.00 Ry     beta= 0.70
     Davidson diagonalization with overlap
     ethr =  1.39E-04,  avg # of iterations =  8.1

     total cpu time spent up to now is       82.9 secs

     total energy              =   -1440.84322995 Ry
     estimated scf accuracy    <       0.30807522 Ry

     iteration #  9     ecut=    60.00 Ry     beta= 0.70
     Davidson diagonalization with overlap
     ethr =  1.39E-04,  avg # of iterations =  4.4

     total cpu time spent up to now is       89.0 secs

     total energy              =   -1440.84207732 Ry
     estimated scf accuracy    <       0.11829432 Ry

     iteration # 10     ecut=    60.00 Ry     beta= 0.70
     Davidson diagonalization with overlap
     ethr =  1.21E-04,  avg # of iterations =  2.1

     total cpu time spent up to now is       94.0 secs

     total energy              =   -1440.83258948 Ry
     estimated scf accuracy    <       0.07437971 Ry

     iteration # 11     ecut=    60.00 Ry     beta= 0.70
     Davidson diagonalization with overlap
     ethr =  7.59E-05,  avg # of iterations =  6.7

     total cpu time spent up to now is      101.6 secs

     total energy              =   -1440.84302683 Ry
     estimated scf accuracy    <       0.02834611 Ry

     iteration # 12     ecut=    60.00 Ry     beta= 0.70
     Davidson diagonalization with overlap
     ethr =  2.89E-05,  avg # of iterations =  4.9

     total cpu time spent up to now is      107.9 secs

     total energy              =   -1440.84119496 Ry
     estimated scf accuracy    <       0.02488151 Ry

     iteration # 13     ecut=    60.00 Ry     beta= 0.70
     Davidson diagonalization with overlap
     ethr =  2.54E-05,  avg # of iterations =  5.9

     total cpu time spent up to now is      115.0 secs

     total energy              =   -1440.84259859 Ry
     estimated scf accuracy    <       0.00891409 Ry

     iteration # 14     ecut=    60.00 Ry     beta= 0.70
     Davidson diagonalization with overlap
     ethr =  9.10E-06,  avg # of iterations =  3.1

     total cpu time spent up to now is      120.4 secs

     total energy              =   -1440.84168173 Ry
     estimated scf accuracy    <       0.00561687 Ry

     iteration # 15     ecut=    60.00 Ry     beta= 0.70
     Davidson diagonalization with overlap
     ethr =  5.73E-06,  avg # of iterations =  7.2

     total cpu time spent up to now is      129.2 secs

     total energy              =   -1440.84331194 Ry
     estimated scf accuracy    <       0.01295579 Ry

     iteration # 16     ecut=    60.00 Ry     beta= 0.70
     Davidson diagonalization with overlap
     ethr =  5.73E-06,  avg # of iterations =  1.0

     total cpu time spent up to now is      133.8 secs

     total energy              =   -1440.84306982 Ry
     estimated scf accuracy    <       0.01075674 Ry

     iteration # 17     ecut=    60.00 Ry     beta= 0.70
     Davidson diagonalization with overlap
     ethr =  5.73E-06,  avg # of iterations =  1.0

     total cpu time spent up to now is      138.4 secs

     total energy              =   -1440.84128501 Ry
     estimated scf accuracy    <       0.00947964 Ry

     iteration # 18     ecut=    60.00 Ry     beta= 0.70
     Davidson diagonalization with overlap
     ethr =  5.73E-06,  avg # of iterations =  6.6

     total cpu time spent up to now is      146.9 secs

     total energy              =   -1440.84282452 Ry
     estimated scf accuracy    <       0.00949052 Ry

     iteration # 19     ecut=    60.00 Ry     beta= 0.70
     Davidson diagonalization with overlap
     ethr =  5.73E-06,  avg # of iterations =  1.2

     total cpu time spent up to now is      151.6 secs

     total energy              =   -1440.84214967 Ry
     estimated scf accuracy    <       0.00596362 Ry

     iteration # 20     ecut=    60.00 Ry     beta= 0.70
     Davidson diagonalization with overlap
     ethr =  5.73E-06,  avg # of iterations =  7.2

     total cpu time spent up to now is      159.4 secs

     total energy              =   -1440.84280795 Ry
     estimated scf accuracy    <       0.00108438 Ry

     iteration # 21     ecut=    60.00 Ry     beta= 0.70
     Davidson diagonalization with overlap
     c_bands:  1 eigenvalues not converged
     ethr =  1.11E-06,  avg # of iterations =  9.6

     total cpu time spent up to now is      168.0 secs

     total energy              =   -1440.84291091 Ry
     estimated scf accuracy    <       0.00002534 Ry

     iteration # 22     ecut=    60.00 Ry     beta= 0.70
     Davidson diagonalization with overlap
     ethr =  2.59E-08,  avg # of iterations =  7.6

     total cpu time spent up to now is      179.1 secs

     total energy              =   -1440.84291386 Ry
     estimated scf accuracy    <       0.00061217 Ry

     iteration # 23     ecut=    60.00 Ry     beta= 0.70
     Davidson diagonalization with overlap
     ethr =  2.59E-08,  avg # of iterations =  6.7

     total cpu time spent up to now is      188.3 secs

     total energy              =   -1440.84290840 Ry
     estimated scf accuracy    <       0.00010381 Ry

     iteration # 24     ecut=    60.00 Ry     beta= 0.70
     Davidson diagonalization with overlap
     ethr =  2.59E-08,  avg # of iterations =  7.0

     total cpu time spent up to now is      197.6 secs

     total energy              =   -1440.84292582 Ry
     estimated scf accuracy    <       0.00005799 Ry

     iteration # 25     ecut=    60.00 Ry     beta= 0.70
     Davidson diagonalization with overlap
     ethr =  2.59E-08,  avg # of iterations =  1.0

     total cpu time spent up to now is      202.2 secs

     total energy              =   -1440.84292131 Ry
     estimated scf accuracy    <       0.00004907 Ry

     iteration # 26     ecut=    60.00 Ry     beta= 0.70
     Davidson diagonalization with overlap
     ethr =  2.59E-08,  avg # of iterations =  7.1

     total cpu time spent up to now is      209.7 secs

     total energy              =   -1440.84292392 Ry
     estimated scf accuracy    <       0.00000160 Ry

     iteration # 27     ecut=    60.00 Ry     beta= 0.70
     Davidson diagonalization with overlap
     ethr =  1.63E-09,  avg # of iterations =  5.8

     total cpu time spent up to now is      217.1 secs

     total energy              =   -1440.84292414 Ry
     estimated scf accuracy    <       0.00000059 Ry

     iteration # 28     ecut=    60.00 Ry     beta= 0.70
     Davidson diagonalization with overlap
     ethr =  6.02E-10,  avg # of iterations =  1.4

     total cpu time spent up to now is      221.8 secs

     total energy              =   -1440.84292408 Ry
     estimated scf accuracy    <       0.00000055 Ry

     iteration # 29     ecut=    60.00 Ry     beta= 0.70
     Davidson diagonalization with overlap
     ethr =  5.66E-10,  avg # of iterations =  5.9

     total cpu time spent up to now is      230.3 secs

     total energy              =   -1440.84292410 Ry
     estimated scf accuracy    <       0.00000178 Ry

     iteration # 30     ecut=    60.00 Ry     beta= 0.70
     Davidson diagonalization with overlap
     ethr =  5.66E-10,  avg # of iterations =  6.5

     total cpu time spent up to now is      237.7 secs

     total energy              =   -1440.84292414 Ry
     estimated scf accuracy    <       0.00000026 Ry

     iteration # 31     ecut=    60.00 Ry     beta= 0.70
     Davidson diagonalization with overlap
     ethr =  2.63E-10,  avg # of iterations =  1.3

     total cpu time spent up to now is      242.4 secs

     total energy              =   -1440.84292415 Ry
     estimated scf accuracy    <       0.00000022 Ry

     iteration # 32     ecut=    60.00 Ry     beta= 0.70
     Davidson diagonalization with overlap
     ethr =  2.27E-10,  avg # of iterations =  1.3

     total cpu time spent up to now is      247.1 secs

     total energy              =   -1440.84292414 Ry
     estimated scf accuracy    <       0.00000021 Ry

     iteration # 33     ecut=    60.00 Ry     beta= 0.70
     Davidson diagonalization with overlap
     ethr =  2.10E-10,  avg # of iterations =  1.0

     total cpu time spent up to now is      251.6 secs

     total energy              =   -1440.84292413 Ry
     estimated scf accuracy    <       0.00000018 Ry

     iteration # 34     ecut=    60.00 Ry     beta= 0.70
     Davidson diagonalization with overlap
     ethr =  1.80E-10,  avg # of iterations =  1.5

     total cpu time spent up to now is      256.4 secs

     total energy              =   -1440.84292414 Ry
     estimated scf accuracy    <       0.00000010 Ry

     iteration # 35     ecut=    60.00 Ry     beta= 0.70
     Davidson diagonalization with overlap
     c_bands:  1 eigenvalues not converged
     ethr =  1.04E-10,  avg # of iterations =  7.1

     total cpu time spent up to now is      263.6 secs

     total energy              =   -1440.84292414 Ry
     estimated scf accuracy    <       0.00000004 Ry

     iteration # 36     ecut=    60.00 Ry     beta= 0.70
     Davidson diagonalization with overlap
     ethr =  4.35E-11,  avg # of iterations =  6.7

     total cpu time spent up to now is      271.8 secs

     total energy              =   -1440.84292414 Ry
     estimated scf accuracy    <       0.00000003 Ry

     iteration # 37     ecut=    60.00 Ry     beta= 0.70
     Davidson diagonalization with overlap
     ethr =  3.48E-11,  avg # of iterations =  4.1

     total cpu time spent up to now is      277.9 secs

     total energy              =   -1440.84292415 Ry
     estimated scf accuracy    <       0.00000003 Ry

     iteration # 38     ecut=    60.00 Ry     beta= 0.70
     Davidson diagonalization with overlap
     ethr =  3.13E-11,  avg # of iterations =  1.5

     total cpu time spent up to now is      282.7 secs

     total energy              =   -1440.84292414 Ry
     estimated scf accuracy    <       0.00000004 Ry

     iteration # 39     ecut=    60.00 Ry     beta= 0.70
     Davidson diagonalization with overlap
     ethr =  3.13E-11,  avg # of iterations =  6.5

     total cpu time spent up to now is      290.5 secs

     total energy              =   -1440.84292414 Ry
     estimated scf accuracy    <       0.00000003 Ry

     iteration # 40     ecut=    60.00 Ry     beta= 0.70
     Davidson diagonalization with overlap
     ethr =  2.87E-11,  avg # of iterations =  5.4

     total cpu time spent up to now is      297.0 secs

     total energy              =   -1440.84292414 Ry
     estimated scf accuracy    <          6.3E-09 Ry

     iteration # 41     ecut=    60.00 Ry     beta= 0.70
     Davidson diagonalization with overlap
     ethr =  6.47E-12,  avg # of iterations =  6.2

     total cpu time spent up to now is      304.1 secs

     total energy              =   -1440.84292414 Ry
     estimated scf accuracy    <          1.6E-09 Ry

     iteration # 42     ecut=    60.00 Ry     beta= 0.70
     Davidson diagonalization with overlap
     ethr =  1.60E-12,  avg # of iterations =  7.5

     total cpu time spent up to now is      312.7 secs

     total energy              =   -1440.84292414 Ry
     estimated scf accuracy    <          6.6E-10 Ry

     iteration # 43     ecut=    60.00 Ry     beta= 0.70
     Davidson diagonalization with overlap
     ethr =  6.70E-13,  avg # of iterations =  7.8

     total cpu time spent up to now is      321.0 secs

     total energy              =   -1440.84292414 Ry
     estimated scf accuracy    <          3.9E-10 Ry

     iteration # 44     ecut=    60.00 Ry     beta= 0.70
     Davidson diagonalization with overlap
     ethr =  4.01E-13,  avg # of iterations =  6.4

     total cpu time spent up to now is      328.3 secs

     total energy              =   -1440.84292414 Ry
     estimated scf accuracy    <          1.1E-10 Ry

     iteration # 45     ecut=    60.00 Ry     beta= 0.70
     Davidson diagonalization with overlap
     c_bands:  1 eigenvalues not converged
     ethr =  1.09E-13,  avg # of iterations =  5.2

     total cpu time spent up to now is      334.9 secs

     End of self-consistent calculation

          k = 0.0000 0.0000 0.0000 ( 11075 PWs)   bands (ev):

   -47.1269 -44.3667 -43.4830 -25.5684 -25.5498 -21.7562 -21.7313 -21.7261
   -19.1989 -18.9943 -18.9534 -18.4646 -18.2280 -18.2231 -15.5681 -15.5156
   -15.3762 -15.3604 -15.2820 -12.3552 -10.1913 -10.1543  -9.7395  -9.4097
    -8.9273  -8.9224  -8.8395  -8.7628  -8.7621  -8.6410  -8.6159  -0.8961
     1.3713   1.3858   1.5592   2.6471   2.7080   2.7345   3.1042   3.4206
     3.5063   4.2050   4.2762   4.7640   5.6333   5.7937   6.0646   6.6501
     6.6911

          k = 0.0000 0.0000 0.2000 ( 11172 PWs)   bands (ev):

   -47.1269 -44.3667 -43.4830 -25.5710 -25.5472 -21.7563 -21.7314 -21.7262
   -19.1987 -18.9944 -18.9535 -18.4651 -18.2288 -18.2234 -15.5685 -15.5153
   -15.3763 -15.3604 -15.2818 -12.3470 -10.1631 -10.1377  -9.7220  -9.4422
    -8.9432  -8.9090  -8.8480  -8.7853  -8.7596  -8.6676  -8.6161  -0.8979
     1.3549   1.3616   1.6177   2.6014   2.7370   2.7870   3.1557   3.4557
     3.5133   4.2238   4.4235   4.7808   5.5724   5.7110   6.0368   6.4649
     6.6501

          k = 0.0000 0.0000 0.4000 ( 11172 PWs)   bands (ev):

   -47.1269 -44.3667 -43.4830 -25.5743 -25.5438 -21.7565 -21.7316 -21.7263
   -19.1984 -18.9945 -18.9534 -18.4659 -18.2301 -18.2238 -15.5691 -15.5148
   -15.3763 -15.3604 -15.2815 -12.3341 -10.1264 -10.0940  -9.6700  -9.5196
    -8.9879  -8.8971  -8.8611  -8.8103  -8.7520  -8.7109  -8.6086  -0.9022
     1.3202   1.3491   1.6774   2.6465   2.7844   2.8948   3.0954   3.4894
     3.5420   4.2267   4.8105   4.8786   5.3860   5.6058   5.8250   6.2184
     6.6041

          k = 0.0000 0.2000 0.2000 ( 11178 PWs)   bands (ev):

   -47.1269 -44.3667 -43.4830 -25.5710 -25.5472 -21.7565 -21.7315 -21.7262
   -19.1988 -18.9945 -18.9535 -18.4652 -18.2286 -18.2244 -15.5691 -15.5150
   -15.3764 -15.3605 -15.2810 -12.3457 -10.1361 -10.0875  -9.6949  -9.5049
    -8.9691  -8.9080  -8.8667  -8.8218  -8.7654  -8.6349  -8.6244  -0.8819
     1.3338   1.3527   1.6063   2.6322   2.7391   2.8080   3.2609   3.4783
     3.5341   4.3446   4.4574   4.8005   5.4900   5.6056   6.0781   6.2758
     6.5059

          k = 0.0000 0.2000 0.4000 ( 11176 PWs)   bands (ev):

   -47.1269 -44.3667 -43.4830 -25.5742 -25.5439 -21.7566 -21.7318 -21.7264
   -19.1984 -18.9945 -18.9534 -18.4662 -18.2301 -18.2248 -15.5691 -15.5145
   -15.3764 -15.3604 -15.2814 -12.3251 -10.1074 -10.0623  -9.6658  -9.5475
    -9.0207  -8.9175  -8.8613  -8.8283  -8.7733  -8.6569  -8.6196  -0.9044
     1.2924   1.3323   1.7085   2.7188   2.7860   2.8793   3.1450   3.5088
     3.5742   4.3636   4.8199   4.8937   5.3311   5.5147   5.8212   6.1977
     6.5044

          k = 0.0000 0.4000 0.4000 ( 11190 PWs)   bands (ev):

   -47.1269 -44.3667 -43.4830 -25.5741 -25.5440 -21.7564 -21.7321 -21.7266
   -19.1984 -18.9945 -18.9534 -18.4667 -18.2300 -18.2265 -15.5688 -15.5140
   -15.3764 -15.3603 -15.2820 -12.3046 -10.1215  -9.9808  -9.6938  -9.5630
    -9.0468  -8.9713  -8.8727  -8.8102  -8.7584  -8.6725  -8.6097  -0.9278
     1.2459   1.3156   1.8334   2.7776   2.8066   2.9044   3.1198   3.5397
     3.6310   4.6939   4.7570   4.8993   5.3150   5.4418   5.6860   5.9636
     6.4591

          k = 0.2000 0.2000 0.2000 ( 11200 PWs)   bands (ev):

   -47.1269 -44.3667 -43.4830 -25.5702 -25.5480 -21.7567 -21.7316 -21.7263
   -19.1984 -18.9945 -18.9535 -18.4657 -18.2292 -18.2250 -15.5691 -15.5148
   -15.3764 -15.3606 -15.2808 -12.3388 -10.0865 -10.0716  -9.7046  -9.5170
    -9.0025  -8.8971  -8.8801  -8.8494  -8.7961  -8.6297  -8.6044  -0.8829
     1.3131   1.3280   1.6362   2.6555   2.7722   2.8197   3.3682   3.5227
     3.5322   4.4183   4.4318   4.8342   5.4549   5.5471   6.0487   6.3625
     6.5078

          k = 0.2000 0.2000 0.4000 ( 11163 PWs)   bands (ev):

   -47.1269 -44.3667 -43.4830 -25.5730 -25.5451 -21.7568 -21.7317 -21.7265
   -19.1984 -18.9944 -18.9534 -18.4664 -18.2305 -18.2251 -15.5689 -15.5146
   -15.3764 -15.3605 -15.2810 -12.3189 -10.0748 -10.0226  -9.6847  -9.5589
    -9.0528  -8.9124  -8.8687  -8.8379  -8.8160  -8.6539  -8.6017  -0.9162
     1.2643   1.3082   1.7929   2.7576   2.7894   2.8626   3.2696   3.5529
     3.5636   4.4398   4.7718   4.8787   5.3614   5.5028   5.7422   6.2186
     6.5325

          k = 0.2000 0.4000 0.4000 ( 11170 PWs)   bands (ev):

   -47.1269 -44.3667 -43.4830 -25.5729 -25.5452 -21.7565 -21.7320 -21.7267
   -19.1985 -18.9944 -18.9534 -18.4671 -18.2305 -18.2269 -15.5683 -15.5143
   -15.3763 -15.3602 -15.2822 -12.2912 -10.0846  -9.9768  -9.7372  -9.5320
    -9.0680  -8.9905  -8.8736  -8.8267  -8.8049  -8.6310  -8.6012  -0.9624
     1.2266   1.2699   1.9407   2.7914   2.8364   2.8667   3.3019   3.5712
     3.6231   4.7012   4.7482   4.9311   5.3753   5.4859   5.6155   5.9569
     6.4328

          k = 0.4000 0.4000 0.4000 ( 11215 PWs)   bands (ev):

   -47.1269 -44.3667 -43.4830 -25.5730 -25.5451 -21.7565 -21.7321 -21.7269
   -19.1990 -18.9945 -18.9535 -18.4679 -18.2317 -18.2271 -15.5673 -15.5146
   -15.3763 -15.3602 -15.2828 -12.2630 -10.0325 -10.0134  -9.7756  -9.4725
    -9.0894  -9.0332  -8.9296  -8.8080  -8.8021  -8.6305  -8.5858  -1.0149
     1.1886   1.2175   2.0680   2.8078   2.8778   2.8832   3.4967   3.6122
     3.6305   4.8158   4.8902   4.9810   5.4329   5.5156   5.5374   5.9597
     6.0005

          k = 0.0000 0.2000 0.0000 ( 11172 PWs)   bands (ev):

   -47.1269 -44.3667 -43.4830 -25.5684 -25.5498 -21.7563 -21.7314 -21.7262
   -19.1990 -18.9945 -18.9535 -18.4648 -18.2279 -18.2241 -15.5687 -15.5152
   -15.3763 -15.3605 -15.2815 -12.3525 -10.1739 -10.1103  -9.7247  -9.4507
    -8.9471  -8.9186  -8.8282  -8.7890  -8.7533  -8.6581  -8.6337  -0.8887
     1.3591   1.3768   1.5950   2.6258   2.7384   2.7470   3.1829   3.4405
     3.5170   4.2812   4.3621   4.7755   5.5468   5.7191   5.9853   6.4653
     6.6526

          k = 0.0000 0.4000 0.0000 ( 11172 PWs)   bands (ev):

   -47.1269 -44.3667 -43.4830 -25.5683 -25.5499 -21.7564 -21.7317 -21.7263
   -19.1991 -18.9944 -18.9535 -18.4650 -18.2275 -18.2257 -15.5695 -15.5145
   -15.3765 -15.3606 -15.2807 -12.3485 -10.1421 -10.0187  -9.7115  -9.5170
    -9.0114  -8.9075  -8.8370  -8.7850  -8.7380  -8.7300  -8.6236  -0.8780
     1.3405   1.3736   1.6185   2.6856   2.7921   2.8286   3.1224   3.5034
     3.5267   4.2879   4.8029   4.8137   5.3901   5.6031   5.7692   5.9867
     6.6062

          k = 0.0000 0.2000-0.2000 ( 11178 PWs)   bands (ev):

   -47.1269 -44.3667 -43.4830 -25.5710 -25.5472 -21.7563 -21.7316 -21.7263
   -19.1988 -18.9945 -18.9534 -18.4654 -18.2287 -18.2244 -15.5684 -15.5149
   -15.3763 -15.3603 -15.2822 -12.3361 -10.1725 -10.1029  -9.7240  -9.4504
    -8.9657  -8.9063  -8.8158  -8.7709  -8.7530  -8.7070  -8.6507  -0.9142
     1.3403   1.3473   1.7240   2.6738   2.7178   2.7827   3.1196   3.4639
     3.5331   4.3405   4.4596   4.7902   5.4997   5.7008   5.9112   6.5017
     6.5974

          k = 0.2000 0.0000-0.2000 ( 11178 PWs)   bands (ev):

   -47.1269 -44.3667 -43.4830 -25.5741 -25.5441 -21.7565 -21.7315 -21.7262
   -19.1990 -18.9944 -18.9534 -18.4653 -18.2296 -18.2234 -15.5691 -15.5152
   -15.3763 -15.3605 -15.2814 -12.3398 -10.1401 -10.1100  -9.6889  -9.4963
    -8.9721  -8.8971  -8.8506  -8.7767  -8.7739  -8.6830  -8.6312  -0.9128
     1.3271   1.3451   1.7379   2.6663   2.6824   2.8354   3.1374   3.4803
     3.5315   4.3120   4.4768   4.7927   5.4852   5.6661   5.9489   6.4941
     6.6151

          k =-0.2000 0.0000-0.2000 ( 11178 PWs)   bands (ev):

   -47.1269 -44.3667 -43.4830 -25.5702 -25.5480 -21.7565 -21.7314 -21.7263
   -19.1984 -18.9945 -18.9535 -18.4657 -18.2294 -18.2239 -15.5682 -15.5151
   -15.3763 -15.3604 -15.2818 -12.3386 -10.1327 -10.1271  -9.7284  -9.4436
    -8.9597  -8.8953  -8.8535  -8.7968  -8.7656  -8.6799  -8.6385  -0.8919
     1.3211   1.3560   1.6351   2.6205   2.7667   2.7867   3.2108   3.5008
     3.5206   4.3549   4.4571   4.8028   5.5335   5.6310   6.1240   6.2991
     6.4918

          k = 0.0000 0.2000-0.4000 ( 11176 PWs)   bands (ev):

   -47.1269 -44.3667 -43.4830 -25.5742 -25.5439 -21.7564 -21.7318 -21.7265
   -19.1984 -18.9945 -18.9534 -18.4663 -18.2301 -18.2248 -15.5687 -15.5145
   -15.3763 -15.3603 -15.2822 -12.3191 -10.1403 -10.0618  -9.7013  -9.4969
    -9.0127  -8.8904  -8.8711  -8.7924  -8.7756  -8.6853  -8.6365  -0.9238
     1.2943   1.3308   1.7916   2.6979   2.7752   2.9140   3.0417   3.5109
     3.5754   4.3625   4.7908   4.8581   5.3842   5.5788   5.7326   6.2722
     6.5572

          k = 0.2000 0.0000-0.4000 ( 11176 PWs)   bands (ev):

   -47.1269 -44.3667 -43.4830 -25.5751 -25.5430 -21.7567 -21.7316 -21.7264
   -19.1988 -18.9944 -18.9534 -18.4660 -18.2307 -18.2238 -15.5691 -15.5149
   -15.3764 -15.3605 -15.2810 -12.3270 -10.1087 -10.0599  -9.6508  -9.5580
    -9.0185  -8.8952  -8.8517  -8.7996  -8.7575  -8.7256  -8.6377  -0.9170
     1.2848   1.3368   1.8008   2.6934   2.7621   2.9453   3.0626   3.5219
     3.5569   4.3555   4.8139   4.8533   5.3352   5.5822   5.7463   6.2541
     6.5655

          k =-0.2000 0.0000-0.4000 ( 11176 PWs)   bands (ev):

   -47.1269 -44.3667 -43.4830 -25.5731 -25.5451 -21.7567 -21.7315 -21.7264
   -19.1984 -18.9945 -18.9534 -18.4662 -18.2306 -18.2240 -15.5686 -15.5149
   -15.3764 -15.3605 -15.2813 -12.3263 -10.1108 -10.0637  -9.6961  -9.5045
    -9.0146  -8.8830  -8.8622  -8.8061  -8.7581  -8.7227  -8.6417  -0.9043
     1.2790   1.3437   1.7330   2.7061   2.8020   2.8608   3.1379   3.5150
     3.5671   4.3738   4.8331   4.8579   5.3650   5.5269   5.8249   6.2268
     6.4899

          k = 0.0000 0.4000 0.2000 ( 11176 PWs)   bands (ev):

   -47.1269 -44.3667 -43.4830 -25.5708 -25.5473 -21.7565 -21.7318 -21.7264
   -19.1988 -18.9945 -18.9534 -18.4656 -18.2284 -18.2261 -15.5694 -15.5144
   -15.3764 -15.3605 -15.2810 -12.3341 -10.1207 -10.0072  -9.6983  -9.5450
    -9.0320  -8.9044  -8.8726  -8.8273  -8.7517  -8.6739  -8.6179  -0.8896
     1.3049   1.3435   1.6745   2.7508   2.7884   2.8414   3.1533   3.5164
     3.5718   4.4201   4.7997   4.8340   5.3505   5.5112   5.7711   6.0466
     6.4603

          k = 0.0000 0.4000-0.2000 ( 11176 PWs)   bands (ev):

   -47.1269 -44.3667 -43.4830 -25.5708 -25.5473 -21.7564 -21.7318 -21.7265
   -19.1988 -18.9945 -18.9534 -18.4658 -18.2285 -18.2261 -15.5689 -15.5143
   -15.3764 -15.3604 -15.2817 -12.3281 -10.1468 -10.0182  -9.7107  -9.5171
    -9.0197  -8.8959  -8.8442  -8.8074  -8.7574  -8.6937  -8.6430  -0.9092
     1.3074   1.3410   1.7542   2.7232   2.7724   2.8990   3.0547   3.5082
     3.5621   4.4029   4.7830   4.8358   5.3750   5.5884   5.6791   6.1360
     6.5383

          k = 0.0000 0.4000-0.4000 ( 11190 PWs)   bands (ev):

   -47.1269 -44.3667 -43.4830 -25.5741 -25.5440 -21.7563 -21.7321 -21.7267
   -19.1984 -18.9945 -18.9534 -18.4668 -18.2301 -18.2265 -15.5686 -15.5140
   -15.3763 -15.3602 -15.2825 -12.3008 -10.1430  -9.9816  -9.7024  -9.5476
    -9.0355  -8.9524  -8.8799  -8.7990  -8.7560  -8.6817  -8.6239  -0.9394
     1.2467   1.3150   1.8969   2.7222   2.7792   2.9561   3.0946   3.5372
     3.6154   4.5975   4.8283   4.8967   5.3360   5.4981   5.6388   5.9713
     6.4931

          k = 0.4000 0.0000-0.4000 ( 11190 PWs)   bands (ev):

   -47.1269 -44.3667 -43.4830 -25.5745 -25.5436 -21.7570 -21.7316 -21.7265
   -19.1990 -18.9944 -18.9534 -18.4665 -18.2316 -18.2239 -15.5687 -15.5150
   -15.3764 -15.3607 -15.2805 -12.3150 -10.0835  -9.9927  -9.6748  -9.5642
    -9.0722  -8.9005  -8.8345  -8.8004  -8.7593  -8.7454  -8.6760  -0.9286
     1.2357   1.3275   1.9191   2.6815   2.8222   2.9996   3.0909   3.5610
     3.5857   4.6053   4.8647   4.8861   5.2875   5.4822   5.6344   5.9581
     6.5182

          k =-0.4000 0.0000-0.4000 ( 11190 PWs)   bands (ev):

   -47.1269 -44.3667 -43.4830 -25.5732 -25.5449 -21.7570 -21.7316 -21.7265
   -19.1988 -18.9944 -18.9535 -18.4666 -18.2316 -18.2241 -15.5683 -15.5150
   -15.3764 -15.3606 -15.2807 -12.3145 -10.0860  -9.9935  -9.7049  -9.5292
    -9.0709  -8.8945  -8.8414  -8.7868  -8.7862  -8.7276  -8.6828  -0.9209
     1.2316   1.3313   1.8695   2.7207   2.8506   2.9103   3.1419   3.5472
     3.6047   4.6806   4.8199   4.8803   5.3593   5.3814   5.7022   5.9491
     6.5097

          k =-0.2000 0.2000-0.2000 ( 11200 PWs)   bands (ev):

   -47.1269 -44.3667 -43.4830 -25.5702 -25.5480 -21.7562 -21.7316 -21.7265
   -19.1984 -18.9945 -18.9535 -18.4662 -18.2295 -18.2249 -15.5676 -15.5148
   -15.3762 -15.3601 -15.2830 -12.3194 -10.1491 -10.1242  -9.7462  -9.4111
    -8.9724  -8.9046  -8.8086  -8.7697  -8.7458  -8.7184  -8.7000  -0.9320
     1.3039   1.3341   1.7892   2.6878   2.7567   2.7983   3.1113   3.5241
     3.5353   4.4809   4.4945   4.8105   5.4745   5.6747   5.9106   6.4011
     6.4814

          k = 0.2000-0.2000-0.2000 ( 11200 PWs)   bands (ev):

   -47.1269 -44.3667 -43.4830 -25.5740 -25.5441 -21.7564 -21.7317 -21.7263
   -19.1991 -18.9945 -18.9534 -18.4657 -18.2295 -18.2245 -15.5690 -15.5149
   -15.3763 -15.3605 -15.2814 -12.3299 -10.1419 -10.0708  -9.6745  -9.5308
    -8.9844  -8.9059  -8.8609  -8.7916  -8.7489  -8.7069  -8.6274  -0.9141
     1.3088   1.3237   1.7670   2.7198   2.7358   2.7895   3.1760   3.4923
     3.5512   4.4633   4.5198   4.8072   5.4160   5.6125   5.9396   6.3497
     6.5186

          k =-0.2000 0.2000-0.4000 ( 11163 PWs)   bands (ev):

   -47.1269 -44.3667 -43.4830 -25.5730 -25.5452 -21.7564 -21.7318 -21.7266
   -19.1984 -18.9945 -18.9534 -18.4669 -18.2307 -18.2251 -15.5678 -15.5146
   -15.3762 -15.3601 -15.2827 -12.3030 -10.1169 -10.0849  -9.7374  -9.4403
    -9.0135  -8.9141  -8.8607  -8.7839  -8.7558  -8.7161  -8.6699  -0.9436
     1.2532   1.3146   1.8446   2.7475   2.8044   2.9178   3.0600   3.5320
     3.6129   4.5146   4.8377   4.8906   5.3569   5.5384   5.7518   6.2392
     6.4164

          k = 0.2000-0.2000-0.4000 ( 11163 PWs)   bands (ev):

   -47.1269 -44.3667 -43.4830 -25.5750 -25.5431 -21.7565 -21.7318 -21.7265
   -19.1988 -18.9944 -18.9533 -18.4665 -18.2307 -18.2248 -15.5686 -15.5147
   -15.3763 -15.3604 -15.2817 -12.3096 -10.0958 -10.0675  -9.6895  -9.5183
    -9.0189  -8.9431  -8.8551  -8.8000  -8.7522  -8.7131  -8.6363  -0.9329
     1.2567   1.3092   1.8263   2.7490   2.8126   2.9201   3.0966   3.5251
     3.6023   4.5086   4.8430   4.9256   5.3014   5.4814   5.7794   6.2000
     6.4340

          k = 0.2000 0.2000-0.4000 ( 11163 PWs)   bands (ev):

   -47.1269 -44.3667 -43.4830 -25.5750 -25.5431 -21.7566 -21.7318 -21.7265
   -19.1988 -18.9944 -18.9533 -18.4664 -18.2306 -18.2249 -15.5689 -15.5146
   -15.3764 -15.3604 -15.2814 -12.3133 -10.1094 -10.0244  -9.6627  -9.5696
    -9.0332  -8.9084  -8.8677  -8.8117  -8.7969  -8.6895  -8.6140  -0.9346
     1.2686   1.3017   1.8850   2.7231   2.7841   2.8853   3.1616   3.5385
     3.5756   4.4802   4.7882   4.8704   5.3209   5.5618   5.6870   6.2529
     6.5108

          k =-0.2000 0.4000 0.2000 ( 11163 PWs)   bands (ev):

   -47.1269 -44.3667 -43.4830 -25.5739 -25.5442 -21.7564 -21.7320 -21.7265
   -19.1991 -18.9944 -18.9533 -18.4661 -18.2292 -18.2262 -15.5690 -15.5143
   -15.3764 -15.3604 -15.2815 -12.3141 -10.1252 -10.0118  -9.6927  -9.5431
    -9.0413  -8.9138  -8.8655  -8.8178  -8.7760  -8.6633  -8.6319  -0.9167
     1.2732   1.3050   1.7885   2.7598   2.8181   2.9015   3.0890   3.5268
     3.6072   4.5738   4.8256   4.8630   5.3419   5.4681   5.7283   6.0938
     6.3647

          k =-0.2000-0.4000-0.2000 ( 11163 PWs)   bands (ev):

   -47.1269 -44.3667 -43.4830 -25.5701 -25.5481 -21.7566 -21.7318 -21.7265
   -19.1984 -18.9945 -18.9535 -18.4662 -18.2290 -18.2267 -15.5689 -15.5143
   -15.3764 -15.3604 -15.2814 -12.3201 -10.0856 -10.0006  -9.7299  -9.5295
    -9.0529  -8.9320  -8.8776  -8.8281  -8.7986  -8.6275  -8.6159  -0.9186
     1.2905   1.2965   1.7690   2.7752   2.8105   2.8449   3.2599   3.5627
     3.5633   4.4525   4.7558   4.8715   5.3324   5.5312   5.7052   6.1357
     6.5116

          k = 0.2000-0.4000 0.2000 ( 11163 PWs)   bands (ev):

   -47.1269 -44.3667 -43.4830 -25.5701 -25.5481 -21.7563 -21.7319 -21.7267
   -19.1984 -18.9945 -18.9535 -18.4666 -18.2292 -18.2266 -15.5681 -15.5143
   -15.3763 -15.3601 -15.2828 -12.3080 -10.1266 -10.0452  -9.7444  -9.4638
    -9.0299  -8.8919  -8.8874  -8.7908  -8.7772  -8.6796  -8.6483  -0.9477
     1.2920   1.2944   1.8755   2.7219   2.8015   2.8811   3.1388   3.5339
     3.5740   4.4937   4.7633   4.8604   5.3964   5.6012   5.6251   6.1752
     6.4798

          k =-0.2000 0.4000-0.4000 ( 11170 PWs)   bands (ev):

   -47.1269 -44.3667 -43.4830 -25.5729 -25.5452 -21.7563 -21.7321 -21.7268
   -19.1984 -18.9945 -18.9534 -18.4674 -18.2307 -18.2269 -15.5676 -15.5143
   -15.3762 -15.3600 -15.2832 -12.2811 -10.1146 -10.0243  -9.7528  -9.4590
    -9.0494  -8.9776  -8.8878  -8.7975  -8.7784  -8.6675  -8.6238  -0.9786
     1.2230   1.2722   1.9768   2.7528   2.8115   2.9157   3.2345   3.5657
     3.6350   4.6966   4.8505   4.9321   5.3533   5.5286   5.6178   5.9583
     6.4089

          k = 0.2000-0.4000-0.4000 ( 11170 PWs)   bands (ev):

   -47.1269 -44.3667 -43.4830 -25.5749 -25.5432 -21.7564 -21.7322 -21.7267
   -19.1989 -18.9944 -18.9533 -18.4672 -18.2307 -18.2266 -15.5681 -15.5142
   -15.3763 -15.3602 -15.2825 -12.2850 -10.1016 -10.0159  -9.7337  -9.4913
    -9.0577  -8.9947  -8.8788  -8.7986  -8.7784  -8.6696  -8.6104  -0.9602
     1.2206   1.2714   1.9089   2.7911   2.8340   2.9321   3.1837   3.5540
     3.6658   4.8018   4.8612   4.9426   5.2947   5.3941   5.6942   5.9891
     6.2822

          k = 0.4000 0.2000-0.4000 ( 11170 PWs)   bands (ev):

   -47.1269 -44.3667 -43.4830 -25.5744 -25.5437 -21.7568 -21.7319 -21.7267
   -19.1991 -18.9944 -18.9534 -18.4670 -18.2317 -18.2250 -15.5681 -15.5149
   -15.3764 -15.3605 -15.2815 -12.2939 -10.0688 -10.0115  -9.7165  -9.5204
    -9.0645  -8.9384  -8.8792  -8.8209  -8.7909  -8.6921  -8.6275  -0.9614
     1.2149   1.2823   1.9700   2.7404   2.8399   2.9375   3.2408   3.5710
     3.6173   4.7080   4.8952   4.9462   5.2605   5.4767   5.6249   5.9596
     6.4349

          k =-0.4000-0.2000-0.4000 ( 11170 PWs)   bands (ev):

   -47.1269 -44.3667 -43.4830 -25.5731 -25.5450 -21.7569 -21.7318 -21.7266
   -19.1988 -18.9944 -18.9535 -18.4669 -18.2316 -18.2252 -15.5683 -15.5148
   -15.3764 -15.3605 -15.2810 -12.2997 -10.0469  -9.9864  -9.7215  -9.5417
    -9.0895  -8.9346  -8.8689  -8.8475  -8.8141  -8.6650  -8.6110  -0.9516
     1.2148   1.2842   1.9516   2.7450   2.8678   2.8810   3.3251   3.5819
     3.5988   4.6773   4.7964   4.9230   5.4159   5.4560   5.5753   5.9411
     6.4189

          k = 0.4000-0.2000 0.4000 ( 11170 PWs)   bands (ev):

   -47.1269 -44.3667 -43.4830 -25.5731 -25.5450 -21.7566 -21.7318 -21.7268
   -19.1988 -18.9944 -18.9535 -18.4673 -18.2317 -18.2252 -15.5674 -15.5149
   -15.3763 -15.3603 -15.2822 -12.2874 -10.0843 -10.0418  -9.7483  -9.4522
    -9.0496  -8.9165  -8.9004  -8.8001  -8.7866  -8.6958  -8.6590  -0.9668
     1.2075   1.2882   1.9405   2.7787   2.8470   2.9304   3.1831   3.5644
     3.6492   4.7858   4.8967   4.9511   5.2828   5.4092   5.7255   5.9648
     6.3372

          k =-0.4000 0.4000 0.2000 ( 11170 PWs)   bands (ev):

   -47.1269 -44.3667 -43.4830 -25.5749 -25.5432 -21.7564 -21.7322 -21.7267
   -19.1989 -18.9944 -18.9533 -18.4671 -18.2306 -18.2267 -15.5683 -15.5142
   -15.3763 -15.3602 -15.2823 -12.2873 -10.1138  -9.9797  -9.7180  -9.5362
    -9.0551  -8.9765  -8.8853  -8.8226  -8.7845  -8.6438  -8.6139  -0.9612
     1.2254   1.2681   1.9529   2.7680   2.8091   2.9136   3.2404   3.5600
     3.6330   4.7212   4.8683   4.9304   5.3006   5.4857   5.6156   5.9737
     6.4086

          k =-0.4000 0.4000-0.4000 ( 11215 PWs)   bands (ev):

   -47.1269 -44.3667 -43.4830 -25.5730 -25.5451 -21.7563 -21.7321 -21.7270
   -19.1989 -18.9945 -18.9535 -18.4682 -18.2318 -18.2271 -15.5667 -15.5146
   -15.3762 -15.3600 -15.2835 -12.2550 -10.0619 -10.0489  -9.7756  -9.4188
    -9.0663  -9.0271  -8.9485  -8.8003  -8.7796  -8.6440  -8.6064  -1.0239
     1.1846   1.2202   2.0606   2.8139   2.8578   2.8992   3.4334   3.6272
     3.6522   4.8894   4.9384   5.0152   5.3254   5.5014   5.6504   5.9478
     5.9748

          k = 0.4000-0.4000-0.4000 ( 11215 PWs)   bands (ev):

   -47.1269 -44.3667 -43.4830 -25.5743 -25.5438 -21.7564 -21.7322 -21.7269
   -19.1992 -18.9944 -18.9535 -18.4679 -18.2318 -18.2269 -15.5672 -15.5146
   -15.3762 -15.3601 -15.2829 -12.2590 -10.0612 -10.0206  -9.7682  -9.4519
    -9.0735  -9.0325  -8.9432  -8.7991  -8.7878  -8.6418  -8.5952  -1.0136
     1.1902   1.2142   2.0428   2.8180   2.8617   2.9064   3.4325   3.6048
     3.6732   4.8690   4.9769   5.0350   5.2957   5.4403   5.6328   5.9362
     6.0241

     highest occupied level (ev):     6.6911

!    total energy              =   -1440.84292414 Ry
     total all-electron energy =     -1440.842924 Ry
     estimated scf accuracy    <          5.7E-11 Ry

     The total energy is the sum of the following terms:
     one-electron contribution =    -592.88197037 Ry
     hartree contribution      =     345.86481803 Ry
     xc contribution           =    -129.30767882 Ry
     ewald contribution        =    -342.76060903 Ry
     one-center paw contrib.   =    -721.75748396 Ry

     convergence has been achieved in  45 iterations

     Forces acting on atoms (cartesian axes, Ry/au):

     atom    1 type  1   force =    -0.01822004   -0.01197373   -0.01822004
     atom    2 type  2   force =     0.01379659    0.01594947   -0.01032917
     atom    3 type  1   force =    -0.00990086    0.01508231   -0.00990086
     atom    4 type  2   force =    -0.01032917    0.01594947    0.01379659
     atom    5 type  4   force =    -0.06539183   -0.14298989   -0.06539183
     atom    6 type  3   force =     0.23433540    0.25904418    0.23433540
     atom    7 type  5   force =     0.82536662    0.00141239   -0.00175416
     atom    8 type  5   force =    -0.86091640   -0.05889794   -0.05601307
     atom    9 type  5   force =     0.00540563    0.83444455    0.00540563
     atom   10 type  5   force =    -0.05637873   -0.87053526   -0.05637873
     atom   11 type  5   force =    -0.00175416    0.00141239    0.82536662
     atom   12 type  5   force =    -0.05601307   -0.05889794   -0.86091640

     Total force =     2.127638     Total SCF correction =     0.000027


     Computing stress (Cartesian axis) and pressure

          total   stress  (Ry/bohr**3)                   (kbar)     P=      497.34
   0.00339456  -0.00039690  -0.00058838          499.36      -58.39      -86.55
  -0.00039690   0.00335338  -0.00039690          -58.39      493.30      -58.39
  -0.00058838  -0.00039690   0.00339456          -86.55      -58.39      499.36


     BFGS Geometry Optimization
     Energy error            =      0.0E+00 Ry
     Gradient error          =      8.7E-01 Ry/Bohr
     Cell gradient error     =      5.0E+02 kbar

     number of scf cycles    =   1
     number of bfgs steps    =   0

     enthalpy           new  =   -1440.8429241427 Ry

     new trust radius        =       0.5000000000 bohr
     new conv_thr            =            1.0E-10 Ry

     new unit-cell volume =   1640.75736 a.u.^3 (   243.13516 Ang^3 )
     density =      2.93707 g/cm^3

CELL_PARAMETERS (angstrom)
   6.242833882  -0.033789604  -0.050091827
  -0.033789604   6.239328222  -0.033789604
  -0.050091827  -0.033789604   6.242833882

ATOMIC_POSITIONS (angstrom)
Na           -0.0057153905       -0.0037352840       -0.0057153905
K             3.1088995645        3.1078222721       -0.0452813352
Na            3.0932281730       -0.0289717177        3.0932281730
K            -0.0452813352        3.1078222721        3.1088995645
Sn            1.5193973418        1.4978077703        1.5193973418
Zr            4.6925418887        4.7101714293        4.6925418887
O             1.8226508595       -0.0094141640       -0.0151838672
O             4.4091467056       -0.0424486534       -0.0530518331
O            -0.0081789795        1.8244861160       -0.0081789795
O            -0.0415957738        4.4035698193       -0.0415957738
O            -0.0151838672       -0.0094141640        1.8226508595
O            -0.0530518331       -0.0424486534        4.4091467056



     Writing config-only to output data dir ./K4ZrSnO6.save/
     NEW-OLD atomic charge density approx. for the potential

     Check: negative core charge=   -0.000001
     extrapolated charge  110.92366, renormalised to   98.00000

     total cpu time spent up to now is      377.7 secs

     per-process dynamical memory:   113.6 Mb

     Self-consistent Calculation

     iteration #  1     ecut=    60.00 Ry     beta= 0.70
     Davidson diagonalization with overlap
     c_bands:  1 eigenvalues not converged
     c_bands:  3 eigenvalues not converged
     c_bands:  3 eigenvalues not converged
     c_bands:  2 eigenvalues not converged
     c_bands:  2 eigenvalues not converged
     c_bands:  2 eigenvalues not converged
     c_bands:  3 eigenvalues not converged
     c_bands:  3 eigenvalues not converged
     c_bands:  2 eigenvalues not converged
     c_bands:  4 eigenvalues not converged
     c_bands:  2 eigenvalues not converged
     c_bands:  3 eigenvalues not converged
     c_bands:  4 eigenvalues not converged
     c_bands:  3 eigenvalues not converged
     c_bands:  2 eigenvalues not converged
     c_bands:  3 eigenvalues not converged
     c_bands:  4 eigenvalues not converged
     c_bands:  3 eigenvalues not converged
     c_bands:  3 eigenvalues not converged
     c_bands:  3 eigenvalues not converged
     c_bands:  4 eigenvalues not converged
     c_bands:  2 eigenvalues not converged
     c_bands:  2 eigenvalues not converged
     c_bands:  3 eigenvalues not converged
     c_bands:  4 eigenvalues not converged
     c_bands:  4 eigenvalues not converged
     c_bands:  5 eigenvalues not converged
     c_bands:  5 eigenvalues not converged
     c_bands:  4 eigenvalues not converged
     c_bands:  2 eigenvalues not converged
     c_bands:  3 eigenvalues not converged
     c_bands:  5 eigenvalues not converged
     c_bands:  5 eigenvalues not converged
     c_bands:  4 eigenvalues not converged
     c_bands:  2 eigenvalues not converged
     c_bands:  3 eigenvalues not converged
     c_bands:  3 eigenvalues not converged
     c_bands:  3 eigenvalues not converged
     c_bands:  5 eigenvalues not converged
     ethr =  1.00E-06,  avg # of iterations = 20.0

     total cpu time spent up to now is      406.1 secs

     total energy              =   -1294.91782606 Ry
     estimated scf accuracy    <     144.21203008 Ry

     iteration #  2     ecut=    60.00 Ry     beta= 0.70
     Davidson diagonalization with overlap
     ethr =  1.00E-02,  avg # of iterations = 10.4

     total cpu time spent up to now is      424.9 secs

     total energy              =   -1396.37532408 Ry
     estimated scf accuracy    <     633.69735670 Ry

     iteration #  3     ecut=    60.00 Ry     beta= 0.70
     Davidson diagonalization with overlap
     ethr =  1.00E-02,  avg # of iterations =  8.9

     total cpu time spent up to now is      440.4 secs

     total energy              =   -1454.14753094 Ry
     estimated scf accuracy    <      51.71510711 Ry

     iteration #  4     ecut=    60.00 Ry     beta= 0.70
     Davidson diagonalization with overlap
     ethr =  1.00E-02,  avg # of iterations =  2.0

     total cpu time spent up to now is      446.3 secs

     total energy              =   -1447.93749490 Ry
     estimated scf accuracy    <      27.06145111 Ry

     iteration #  5     ecut=    60.00 Ry     beta= 0.70
     Davidson diagonalization with overlap
     ethr =  1.00E-02,  avg # of iterations =  2.1

     total cpu time spent up to now is      451.7 secs

     total energy              =   -1445.47879843 Ry
     estimated scf accuracy    <      14.54188019 Ry

     iteration #  6     ecut=    60.00 Ry     beta= 0.70
     Davidson diagonalization with overlap
     ethr =  1.00E-02,  avg # of iterations =  3.7

     total cpu time spent up to now is      457.6 secs

     total energy              =   -1445.77995006 Ry
     estimated scf accuracy    <       8.74446789 Ry

     iteration #  7     ecut=    60.00 Ry     beta= 0.70
     Davidson diagonalization with overlap
     ethr =  8.92E-03,  avg # of iterations =  1.5

     total cpu time spent up to now is      462.6 secs

     total energy              =   -1445.96216109 Ry
     estimated scf accuracy    <       8.28683464 Ry

     iteration #  8     ecut=    60.00 Ry     beta= 0.70
     Davidson diagonalization with overlap
     ethr =  8.46E-03,  avg # of iterations =  1.0

     total cpu time spent up to now is      467.4 secs

     total energy              =   -1445.31201412 Ry
     estimated scf accuracy    <       8.44934569 Ry

     iteration #  9     ecut=    60.00 Ry     beta= 0.70
     Davidson diagonalization with overlap
     ethr =  8.46E-03,  avg # of iterations =  1.0

     total cpu time spent up to now is      472.2 secs

     total energy              =   -1443.85897373 Ry
     estimated scf accuracy    <       7.10833070 Ry

     iteration # 10     ecut=    60.00 Ry     beta= 0.70
     Davidson diagonalization with overlap
     ethr =  7.25E-03,  avg # of iterations =  1.4

     total cpu time spent up to now is      477.2 secs

     total energy              =   -1441.98082835 Ry
     estimated scf accuracy    <       4.06495512 Ry

     iteration # 11     ecut=    60.00 Ry     beta= 0.70
     Davidson diagonalization with overlap
     ethr =  4.15E-03,  avg # of iterations =  5.1

     total cpu time spent up to now is      486.6 secs

     total energy              =   -1447.17463984 Ry
     estimated scf accuracy    <      23.92254705 Ry

     iteration # 12     ecut=    60.00 Ry     beta= 0.70
     Davidson diagonalization with overlap
     ethr =  4.15E-03,  avg # of iterations =  5.3

     negative rho (up, down):  1.028E-02 0.000E+00

     total cpu time spent up to now is      493.9 secs

     total energy              =   -1449.51478672 Ry
     estimated scf accuracy    <      43.34502385 Ry

     iteration # 13     ecut=    60.00 Ry     beta= 0.70
     Davidson diagonalization with overlap
     ethr =  4.15E-03,  avg # of iterations =  3.0

     negative rho (up, down):  1.123E-02 0.000E+00

     total cpu time spent up to now is      499.6 secs

     total energy              =   -1449.20674632 Ry
     estimated scf accuracy    <      51.32501907 Ry

     iteration # 14     ecut=    60.00 Ry     beta= 0.70
     Davidson diagonalization with overlap
     ethr =  4.15E-03,  avg # of iterations =  3.0

     negative rho (up, down):  1.817E-01 0.000E+00

     total cpu time spent up to now is      505.4 secs

     total energy              =   -1445.81753647 Ry
     estimated scf accuracy    <      50.75636346 Ry

     iteration # 15     ecut=    60.00 Ry     beta= 0.70
     Davidson diagonalization with overlap
     ethr =  4.15E-03,  avg # of iterations =  5.4

     negative rho (up, down):  4.547E-02 0.000E+00

     total cpu time spent up to now is      515.0 secs

     total energy              =   -1445.87198960 Ry
     estimated scf accuracy    <      77.98801734 Ry

     iteration # 16     ecut=    60.00 Ry     beta= 0.70
     Davidson diagonalization with overlap
     ethr =  4.15E-03,  avg # of iterations =  6.3

     negative rho (up, down):  2.634E-03 0.000E+00

     total cpu time spent up to now is      524.0 secs

     total energy              =   -1444.30719262 Ry
     estimated scf accuracy    <      43.21508238 Ry

     iteration # 17     ecut=    60.00 Ry     beta= 0.70
     Davidson diagonalization with overlap
     ethr =  4.15E-03,  avg # of iterations =  4.4

     negative rho (up, down):  2.692E-02 0.000E+00

     total cpu time spent up to now is      531.4 secs

     total energy              =   -1444.95935689 Ry
     estimated scf accuracy    <      26.49761556 Ry

     iteration # 18     ecut=    60.00 Ry     beta= 0.70
     Davidson diagonalization with overlap
     ethr =  4.15E-03,  avg # of iterations =  2.9

     negative rho (up, down):  3.835E-03 0.000E+00

     total cpu time spent up to now is      537.1 secs

     total energy              =   -1440.20305168 Ry
     estimated scf accuracy    <      25.11283800 Ry

     iteration # 19     ecut=    60.00 Ry     beta= 0.70
     Davidson diagonalization with overlap
     ethr =  4.15E-03,  avg # of iterations =  6.4

     negative rho (up, down):  3.447E-03 0.000E+00

     total cpu time spent up to now is      546.5 secs

     total energy              =   -1442.72713399 Ry
     estimated scf accuracy    <       3.53951172 Ry

     iteration # 20     ecut=    60.00 Ry     beta= 0.70
     Davidson diagonalization with overlap
     ethr =  3.61E-03,  avg # of iterations =  4.6

     total cpu time spent up to now is      553.3 secs

     total energy              =   -1442.80786355 Ry
     estimated scf accuracy    <       2.34516919 Ry

     iteration # 21     ecut=    60.00 Ry     beta= 0.70
     Davidson diagonalization with overlap
     ethr =  2.39E-03,  avg # of iterations =  1.1

     total cpu time spent up to now is      558.1 secs

     total energy              =   -1442.61637610 Ry
     estimated scf accuracy    <       1.53572186 Ry

     iteration # 22     ecut=    60.00 Ry     beta= 0.70
     Davidson diagonalization with overlap
     ethr =  1.57E-03,  avg # of iterations =  6.2

     total cpu time spent up to now is      565.7 secs

     total energy              =   -1442.76027669 Ry
     estimated scf accuracy    <       0.52726227 Ry

     iteration # 23     ecut=    60.00 Ry     beta= 0.70
     Davidson diagonalization with overlap
     ethr =  5.38E-04,  avg # of iterations =  1.5

     total cpu time spent up to now is      570.7 secs

     total energy              =   -1442.69773162 Ry
     estimated scf accuracy    <       0.35258594 Ry

     iteration # 24     ecut=    60.00 Ry     beta= 0.70
     Davidson diagonalization with overlap
     ethr =  3.60E-04,  avg # of iterations =  6.3

     total cpu time spent up to now is      579.1 secs

     total energy              =   -1442.79238653 Ry
     estimated scf accuracy    <       0.72296747 Ry

     iteration # 25     ecut=    60.00 Ry     beta= 0.70
     Davidson diagonalization with overlap
     ethr =  3.60E-04,  avg # of iterations =  1.0

     total cpu time spent up to now is      583.9 secs

     total energy              =   -1442.71800416 Ry
     estimated scf accuracy    <       0.70457856 Ry

     iteration # 26     ecut=    60.00 Ry     beta= 0.70
     Davidson diagonalization with overlap
     ethr =  3.60E-04,  avg # of iterations =  6.4

     total cpu time spent up to now is      591.4 secs

     total energy              =   -1442.76102537 Ry
     estimated scf accuracy    <       0.05339633 Ry

     iteration # 27     ecut=    60.00 Ry     beta= 0.70
     Davidson diagonalization with overlap
     ethr =  5.45E-05,  avg # of iterations =  4.0

     total cpu time spent up to now is      597.7 secs

     total energy              =   -1442.76049502 Ry
     estimated scf accuracy    <       0.03601080 Ry

     iteration # 28     ecut=    60.00 Ry     beta= 0.70
     Davidson diagonalization with overlap
     ethr =  3.67E-05,  avg # of iterations =  3.8

     total cpu time spent up to now is      603.7 secs

     total energy              =   -1442.75991584 Ry
     estimated scf accuracy    <       0.01490776 Ry

     iteration # 29     ecut=    60.00 Ry     beta= 0.70
     Davidson diagonalization with overlap
     ethr =  1.52E-05,  avg # of iterations =  9.2

     total cpu time spent up to now is      612.6 secs

     total energy              =   -1442.76193614 Ry
     estimated scf accuracy    <       0.02507107 Ry

     iteration # 30     ecut=    60.00 Ry     beta= 0.70
     Davidson diagonalization with overlap
     ethr =  1.52E-05,  avg # of iterations =  1.0

     total cpu time spent up to now is      617.4 secs

     total energy              =   -1442.76161435 Ry
     estimated scf accuracy    <       0.02073708 Ry

     iteration # 31     ecut=    60.00 Ry     beta= 0.70
     Davidson diagonalization with overlap
     ethr =  1.52E-05,  avg # of iterations =  1.4

     total cpu time spent up to now is      622.4 secs

     total energy              =   -1442.76017644 Ry
     estimated scf accuracy    <       0.01691649 Ry

     iteration # 32     ecut=    60.00 Ry     beta= 0.70
     Davidson diagonalization with overlap
     ethr =  1.52E-05,  avg # of iterations =  6.9

     total cpu time spent up to now is      630.2 secs

     total energy              =   -1442.76143094 Ry
     estimated scf accuracy    <       0.03172155 Ry

     iteration # 33     ecut=    60.00 Ry     beta= 0.70
     Davidson diagonalization with overlap
     ethr =  1.52E-05,  avg # of iterations =  4.6

     total cpu time spent up to now is      636.5 secs

     total energy              =   -1442.76107764 Ry
     estimated scf accuracy    <       0.01008636 Ry

     iteration # 34     ecut=    60.00 Ry     beta= 0.70
     Davidson diagonalization with overlap
     ethr =  1.03E-05,  avg # of iterations =  7.0

     total cpu time spent up to now is      644.0 secs

     total energy              =   -1442.76171504 Ry
     estimated scf accuracy    <       0.00096493 Ry

     iteration # 35     ecut=    60.00 Ry     beta= 0.70
     Davidson diagonalization with overlap
     ethr =  9.85E-07,  avg # of iterations =  7.4

     total cpu time spent up to now is      653.4 secs

     total energy              =   -1442.76210329 Ry
     estimated scf accuracy    <       0.00529256 Ry

     iteration # 36     ecut=    60.00 Ry     beta= 0.70
     Davidson diagonalization with overlap
     ethr =  9.85E-07,  avg # of iterations =  1.0

     total cpu time spent up to now is      658.2 secs

     total energy              =   -1442.76184001 Ry
     estimated scf accuracy    <       0.00489573 Ry

     iteration # 37     ecut=    60.00 Ry     beta= 0.70
     Davidson diagonalization with overlap
     ethr =  9.85E-07,  avg # of iterations =  7.6

     total cpu time spent up to now is      666.2 secs

     total energy              =   -1442.76194808 Ry
     estimated scf accuracy    <       0.00046021 Ry

     iteration # 38     ecut=    60.00 Ry     beta= 0.70
     Davidson diagonalization with overlap
     ethr =  4.70E-07,  avg # of iterations =  8.1

     total cpu time spent up to now is      674.3 secs

     total energy              =   -1442.76200318 Ry
     estimated scf accuracy    <       0.00034436 Ry

     iteration # 39     ecut=    60.00 Ry     beta= 0.70
     Davidson diagonalization with overlap
     ethr =  3.51E-07,  avg # of iterations =  1.0

     total cpu time spent up to now is      679.1 secs

     total energy              =   -1442.76199275 Ry
     estimated scf accuracy    <       0.00029680 Ry

     iteration # 40     ecut=    60.00 Ry     beta= 0.70
     Davidson diagonalization with overlap
     ethr =  3.03E-07,  avg # of iterations =  1.2

     total cpu time spent up to now is      684.0 secs

     total energy              =   -1442.76198900 Ry
     estimated scf accuracy    <       0.00020865 Ry

     iteration # 41     ecut=    60.00 Ry     beta= 0.70
     Davidson diagonalization with overlap
     ethr =  2.13E-07,  avg # of iterations =  3.7

     total cpu time spent up to now is      689.9 secs

     total energy              =   -1442.76199640 Ry
     estimated scf accuracy    <       0.00003292 Ry

     iteration # 42     ecut=    60.00 Ry     beta= 0.70
     Davidson diagonalization with overlap
     ethr =  3.36E-08,  avg # of iterations =  7.3

     total cpu time spent up to now is      698.2 secs

     total energy              =   -1442.76200835 Ry
     estimated scf accuracy    <       0.00008345 Ry

     iteration # 43     ecut=    60.00 Ry     beta= 0.70
     Davidson diagonalization with overlap
     ethr =  3.36E-08,  avg # of iterations =  1.0

     total cpu time spent up to now is      703.0 secs

     total energy              =   -1442.76200642 Ry
     estimated scf accuracy    <       0.00008143 Ry

     iteration # 44     ecut=    60.00 Ry     beta= 0.70
     Davidson diagonalization with overlap
     ethr =  3.36E-08,  avg # of iterations =  1.0

     total cpu time spent up to now is      707.7 secs

     total energy              =   -1442.76200468 Ry
     estimated scf accuracy    <       0.00007108 Ry

     iteration # 45     ecut=    60.00 Ry     beta= 0.70
     Davidson diagonalization with overlap
     ethr =  3.36E-08,  avg # of iterations =  1.2

     total cpu time spent up to now is      712.6 secs

     total energy              =   -1442.76199801 Ry
     estimated scf accuracy    <       0.00005860 Ry

     iteration # 46     ecut=    60.00 Ry     beta= 0.70
     Davidson diagonalization with overlap
     ethr =  3.36E-08,  avg # of iterations =  6.8

     total cpu time spent up to now is      720.5 secs

     total energy              =   -1442.76200629 Ry
     estimated scf accuracy    <       0.00005139 Ry

     iteration # 47     ecut=    60.00 Ry     beta= 0.70
     Davidson diagonalization with overlap
     ethr =  3.36E-08,  avg # of iterations =  1.0

     total cpu time spent up to now is      725.3 secs

     total energy              =   -1442.76200594 Ry
     estimated scf accuracy    <       0.00004847 Ry

     iteration # 48     ecut=    60.00 Ry     beta= 0.70
     Davidson diagonalization with overlap
     ethr =  3.36E-08,  avg # of iterations =  1.0

     total cpu time spent up to now is      730.1 secs

     total energy              =   -1442.76200444 Ry
     estimated scf accuracy    <       0.00004583 Ry

     iteration # 49     ecut=    60.00 Ry     beta= 0.70
     Davidson diagonalization with overlap
     ethr =  3.36E-08,  avg # of iterations =  1.0

     total cpu time spent up to now is      734.9 secs

     total energy              =   -1442.76200578 Ry
     estimated scf accuracy    <       0.00003801 Ry

     iteration # 50     ecut=    60.00 Ry     beta= 0.70
     Davidson diagonalization with overlap
     ethr =  3.36E-08,  avg # of iterations =  1.0

     total cpu time spent up to now is      739.7 secs

     total energy              =   -1442.76200391 Ry
     estimated scf accuracy    <       0.00004046 Ry

     iteration # 51     ecut=    60.00 Ry     beta= 0.70
     Davidson diagonalization with overlap
     ethr =  3.36E-08,  avg # of iterations =  3.5

     total cpu time spent up to now is      745.5 secs

     total energy              =   -1442.76200323 Ry
     estimated scf accuracy    <       0.00001426 Ry

     iteration # 52     ecut=    60.00 Ry     beta= 0.70
     Davidson diagonalization with overlap
     ethr =  1.45E-08,  avg # of iterations =  8.1

     total cpu time spent up to now is      753.6 secs

     total energy              =   -1442.76200525 Ry
     estimated scf accuracy    <       0.00000673 Ry

     iteration # 53     ecut=    60.00 Ry     beta= 0.70
     Davidson diagonalization with overlap
     ethr =  6.86E-09,  avg # of iterations =  1.2

     total cpu time spent up to now is      758.5 secs

     total energy              =   -1442.76200519 Ry
     estimated scf accuracy    <       0.00000677 Ry

     iteration # 54     ecut=    60.00 Ry     beta= 0.70
     Davidson diagonalization with overlap
     ethr =  6.86E-09,  avg # of iterations =  1.0

     total cpu time spent up to now is      763.3 secs

     total energy              =   -1442.76200519 Ry
     estimated scf accuracy    <       0.00000640 Ry

     iteration # 55     ecut=    60.00 Ry     beta= 0.70
     Davidson diagonalization with overlap
     ethr =  6.53E-09,  avg # of iterations =  1.2

     total cpu time spent up to now is      768.2 secs

     total energy              =   -1442.76200527 Ry
     estimated scf accuracy    <       0.00000623 Ry

     iteration # 56     ecut=    60.00 Ry     beta= 0.70
     Davidson diagonalization with overlap
     ethr =  6.35E-09,  avg # of iterations =  1.0

     total cpu time spent up to now is      773.0 secs

     total energy              =   -1442.76200530 Ry
     estimated scf accuracy    <       0.00000642 Ry

     iteration # 57     ecut=    60.00 Ry     beta= 0.70
     Davidson diagonalization with overlap
     ethr =  6.35E-09,  avg # of iterations =  1.0

     total cpu time spent up to now is      777.8 secs

     total energy              =   -1442.76200527 Ry
     estimated scf accuracy    <       0.00000651 Ry

     iteration # 58     ecut=    60.00 Ry     beta= 0.70
     Davidson diagonalization with overlap
     ethr =  6.35E-09,  avg # of iterations =  1.2

     total cpu time spent up to now is      782.7 secs

     total energy              =   -1442.76200477 Ry
     estimated scf accuracy    <       0.00000657 Ry

     iteration # 59     ecut=    60.00 Ry     beta= 0.70
     Davidson diagonalization with overlap
     ethr =  6.35E-09,  avg # of iterations =  3.8

     total cpu time spent up to now is      788.7 secs

     total energy              =   -1442.76200496 Ry
     estimated scf accuracy    <       0.00000053 Ry

     iteration # 60     ecut=    60.00 Ry     beta= 0.70
     Davidson diagonalization with overlap
     ethr =  5.40E-10,  avg # of iterations =  6.7

     total cpu time spent up to now is      796.6 secs

     total energy              =   -1442.76200507 Ry
     estimated scf accuracy    <       0.00000020 Ry

     iteration # 61     ecut=    60.00 Ry     beta= 0.70
     Davidson diagonalization with overlap
     ethr =  2.03E-10,  avg # of iterations =  5.6

     total cpu time spent up to now is      804.7 secs

     total energy              =   -1442.76200506 Ry
     estimated scf accuracy    <       0.00000047 Ry

     iteration # 62     ecut=    60.00 Ry     beta= 0.70
     Davidson diagonalization with overlap
     ethr =  2.03E-10,  avg # of iterations =  5.6

     total cpu time spent up to now is      811.8 secs

     total energy              =   -1442.76200508 Ry
     estimated scf accuracy    <       0.00000012 Ry

     iteration # 63     ecut=    60.00 Ry     beta= 0.70
     Davidson diagonalization with overlap
     ethr =  1.26E-10,  avg # of iterations =  1.2

     total cpu time spent up to now is      816.7 secs

     total energy              =   -1442.76200507 Ry
     estimated scf accuracy    <       0.00000009 Ry

     iteration # 64     ecut=    60.00 Ry     beta= 0.70
     Davidson diagonalization with overlap
     ethr =  9.22E-11,  avg # of iterations =  7.0

     total cpu time spent up to now is      824.2 secs

     total energy              =   -1442.76200508 Ry
     estimated scf accuracy    <       0.00000004 Ry

     iteration # 65     ecut=    60.00 Ry     beta= 0.70
     Davidson diagonalization with overlap
     ethr =  3.72E-11,  avg # of iterations =  2.0

     total cpu time spent up to now is      829.4 secs

     total energy              =   -1442.76200508 Ry
     estimated scf accuracy    <       0.00000004 Ry

     iteration # 66     ecut=    60.00 Ry     beta= 0.70
     Davidson diagonalization with overlap
     ethr =  3.72E-11,  avg # of iterations =  1.1

     total cpu time spent up to now is      834.3 secs

     total energy              =   -1442.76200508 Ry
     estimated scf accuracy    <       0.00000004 Ry

     iteration # 67     ecut=    60.00 Ry     beta= 0.70
     Davidson diagonalization with overlap
     ethr =  3.72E-11,  avg # of iterations =  1.6

     total cpu time spent up to now is      839.3 secs

     total energy              =   -1442.76200508 Ry
     estimated scf accuracy    <       0.00000003 Ry

     iteration # 68     ecut=    60.00 Ry     beta= 0.70
     Davidson diagonalization with overlap
     ethr =  2.83E-11,  avg # of iterations =  4.1

     total cpu time spent up to now is      845.5 secs

     total energy              =   -1442.76200508 Ry
     estimated scf accuracy    <          5.9E-09 Ry

     iteration # 69     ecut=    60.00 Ry     beta= 0.70
     Davidson diagonalization with overlap
     ethr =  6.03E-12,  avg # of iterations =  5.6

     total cpu time spent up to now is      852.3 secs

     total energy              =   -1442.76200508 Ry
     estimated scf accuracy    <          1.0E-09 Ry

     iteration # 70     ecut=    60.00 Ry     beta= 0.70
     Davidson diagonalization with overlap
     ethr =  1.04E-12,  avg # of iterations =  7.6

     total cpu time spent up to now is      860.8 secs

     total energy              =   -1442.76200508 Ry
     estimated scf accuracy    <          4.0E-10 Ry

     iteration # 71     ecut=    60.00 Ry     beta= 0.70
     Davidson diagonalization with overlap
     ethr =  4.04E-13,  avg # of iterations =  2.2

     total cpu time spent up to now is      866.1 secs

     total energy              =   -1442.76200508 Ry
     estimated scf accuracy    <          4.1E-10 Ry

     iteration # 72     ecut=    60.00 Ry     beta= 0.70
     Davidson diagonalization with overlap
     ethr =  4.04E-13,  avg # of iterations =  1.3

     total cpu time spent up to now is      871.0 secs

     total energy              =   -1442.76200508 Ry
     estimated scf accuracy    <          3.1E-10 Ry

     iteration # 73     ecut=    60.00 Ry     beta= 0.70
     Davidson diagonalization with overlap
     ethr =  3.12E-13,  avg # of iterations =  7.9

     total cpu time spent up to now is      879.1 secs

     total energy              =   -1442.76200508 Ry
     estimated scf accuracy    <          2.2E-10 Ry

     iteration # 74     ecut=    60.00 Ry     beta= 0.70
     Davidson diagonalization with overlap
     ethr =  2.28E-13,  avg # of iterations =  1.3

     total cpu time spent up to now is      884.0 secs

     total energy              =   -1442.76200508 Ry
     estimated scf accuracy    <          2.0E-10 Ry

     iteration # 75     ecut=    60.00 Ry     beta= 0.70
     Davidson diagonalization with overlap
     ethr =  2.00E-13,  avg # of iterations =  3.7

     total cpu time spent up to now is      889.9 secs

     total energy              =   -1442.76200508 Ry
     estimated scf accuracy    <          1.0E-10 Ry

     iteration # 76     ecut=    60.00 Ry     beta= 0.70
     Davidson diagonalization with overlap
     ethr =  1.06E-13,  avg # of iterations =  7.7

     total cpu time spent up to now is      897.8 secs

     End of self-consistent calculation

          k = 0.0000 0.0000 0.0000 ( 11075 PWs)   bands (ev):

   -48.8923 -44.7674 -43.2463 -26.8811 -26.8782 -22.9673 -22.9647 -22.9404
   -20.9196 -20.7759 -20.7247 -16.7525 -16.7132 -16.6108 -16.5902 -16.5862
   -15.9040 -15.7215 -15.7113 -12.4503 -11.5453 -11.5441 -11.0512 -10.7640
   -10.7179 -10.6669 -10.6498 -10.2777 -10.2347 -10.1276 -10.1246  -1.7724
     0.8902   1.5609   1.5695   1.6321   1.6676   2.0415   2.1307   2.3634
     2.4455   2.8591   2.8945   3.4580   3.7114   3.7491   4.2555   4.7436
     4.7699

          k = 0.0015 0.0010 0.1908 ( 11172 PWs)   bands (ev):

   -48.8923 -44.7674 -43.2463 -26.8826 -26.8766 -22.9674 -22.9647 -22.9404
   -20.9198 -20.7762 -20.7250 -16.7528 -16.7134 -16.6111 -16.5902 -16.5862
   -15.9056 -15.7242 -15.7121 -12.4284 -11.5406 -11.5034 -11.0455 -10.8134
   -10.7758 -10.6668 -10.6211 -10.2736 -10.2389 -10.1268 -10.1241  -1.7846
     0.9771   1.5093   1.5305   1.6629   1.7198   1.9661   2.1995   2.3777
     2.4253   2.8786   3.0052   3.4643   3.6911   3.7028   4.2773   4.5581
     4.6851

          k = 0.0031 0.0021 0.3815 ( 11172 PWs)   bands (ev):

   -48.8923 -44.7674 -43.2463 -26.8841 -26.8751 -22.9674 -22.9648 -22.9404
   -20.9198 -20.7762 -20.7249 -16.7533 -16.7135 -16.6115 -16.5902 -16.5862
   -15.9078 -15.7283 -15.7127 -12.3947 -11.5340 -11.3924 -11.0798 -10.9011
   -10.8439 -10.6559 -10.6029 -10.2634 -10.2489 -10.1265 -10.1218  -1.8043
     1.1405   1.4692   1.4858   1.6806   1.7429   1.9716   2.1844   2.3583
     2.4354   2.8973   3.2456   3.4913   3.6351   3.6636   4.2228   4.3490
     4.6235

          k = 0.0026 0.1919 0.1918 ( 11178 PWs)   bands (ev):

   -48.8923 -44.7674 -43.2463 -26.8826 -26.8766 -22.9674 -22.9648 -22.9404
   -20.9198 -20.7762 -20.7249 -16.7524 -16.7138 -16.6114 -16.5902 -16.5864
   -15.9061 -15.7249 -15.7153 -12.4113 -11.5105 -11.4862 -11.0190 -10.8733
   -10.7959 -10.7097 -10.5978 -10.2730 -10.2425 -10.1239 -10.1173  -1.7899
     1.0420   1.4452   1.4859   1.6906   1.7929   1.9132   2.2590   2.3519
     2.4904   2.9453   3.0222   3.4747   3.6230   3.7219   4.1891   4.5506
     4.6442

          k = 0.0041 0.1929 0.3826 ( 11176 PWs)   bands (ev):

   -48.8923 -44.7674 -43.2463 -26.8841 -26.8751 -22.9674 -22.9648 -22.9405
   -20.9198 -20.7762 -20.7249 -16.7530 -16.7139 -16.6115 -16.5902 -16.5863
   -15.9091 -15.7288 -15.7157 -12.3660 -11.5061 -11.3877 -11.1132 -10.8893
   -10.8501 -10.7045 -10.6004 -10.2601 -10.2503 -10.1247 -10.1132  -1.8097
     1.2017   1.3933   1.4516   1.6938   1.8220   1.9660   2.1812   2.3217
     2.5187   2.9441   3.2498   3.4874   3.5644   3.7384   4.0693   4.4666
     4.5830

          k = 0.0052 0.3838 0.3836 ( 11190 PWs)   bands (ev):

   -48.8923 -44.7674 -43.2463 -26.8840 -26.8751 -22.9674 -22.9650 -22.9405
   -20.9199 -20.7762 -20.7249 -16.7527 -16.7147 -16.6114 -16.5902 -16.5865
   -15.9120 -15.7296 -15.7197 -12.3125 -11.4440 -11.3622 -11.2231 -10.9371
   -10.7936 -10.7482 -10.6170 -10.2594 -10.2445 -10.1208 -10.1032  -1.8231
     1.2768   1.3752   1.4286   1.7405   1.8547   1.9247   2.1210   2.3595
     2.6119   2.9345   3.3190   3.4469   3.5538   3.8412   3.8817   4.4795
     4.6213

          k = 0.1933 0.1929 0.1933 ( 11200 PWs)   bands (ev):

   -48.8923 -44.7674 -43.2463 -26.8821 -26.8771 -22.9674 -22.9648 -22.9405
   -20.9199 -20.7762 -20.7250 -16.7525 -16.7140 -16.6116 -16.5902 -16.5864
   -15.9073 -15.7274 -15.7162 -12.3885 -11.4828 -11.4689 -11.0113 -10.8802
   -10.8581 -10.7136 -10.6089 -10.2626 -10.2542 -10.1194 -10.1157  -1.7999
     1.0992   1.4018   1.4344   1.7819   1.8275   1.8646   2.3200   2.3795
     2.5468   2.9334   2.9614   3.5468   3.6558   3.6603   4.0604   4.6356
     4.6724

          k = 0.1949 0.1940 0.3841 ( 11163 PWs)   bands (ev):

   -48.8923 -44.7674 -43.2463 -26.8836 -26.8756 -22.9675 -22.9648 -22.9405
   -20.9198 -20.7761 -20.7250 -16.7530 -16.7140 -16.6118 -16.5901 -16.5863
   -15.9100 -15.7310 -15.7169 -12.3415 -11.4767 -11.3730 -11.1079 -10.9079
[...]

     total cpu time spent up to now is     2221.8 secs

     total energy              =   -1443.48015317 Ry
     estimated scf accuracy    <       0.00156703 Ry

     iteration # 49     ecut=    60.00 Ry     beta= 0.70
     Davidson diagonalization with overlap
     ethr =  1.21E-07,  avg # of iterations =  7.9

     total cpu time spent up to now is     2231.3 secs

     total energy              =   -1443.48022726 Ry
     estimated scf accuracy    <       0.01173950 Ry

     iteration # 50     ecut=    60.00 Ry     beta= 0.70
     Davidson diagonalization with overlap
     ethr =  1.21E-07,  avg # of iterations =  1.0

     total cpu time spent up to now is     2236.1 secs

     total energy              =   -1443.48021468 Ry
     estimated scf accuracy    <       0.01153903 Ry

     iteration # 51     ecut=    60.00 Ry     beta= 0.70
     Davidson diagonalization with overlap
     ethr =  1.21E-07,  avg # of iterations =  1.0

     total cpu time spent up to now is     2240.9 secs

     total energy              =   -1443.48015081 Ry
     estimated scf accuracy    <       0.01146203 Ry

     iteration # 52     ecut=    60.00 Ry     beta= 0.70
     Davidson diagonalization with overlap
     ethr =  1.21E-07,  avg # of iterations =  2.5

     total cpu time spent up to now is     2246.3 secs

     total energy              =   -1443.48015337 Ry
     estimated scf accuracy    <       0.00966596 Ry

     iteration # 53     ecut=    60.00 Ry     beta= 0.70
     Davidson diagonalization with overlap
     ethr =  1.21E-07,  avg # of iterations =  1.0

     total cpu time spent up to now is     2251.2 secs

     total energy              =   -1443.48027559 Ry
     estimated scf accuracy    <       0.00959947 Ry

     iteration # 54     ecut=    60.00 Ry     beta= 0.70
     Davidson diagonalization with overlap
     ethr =  1.21E-07,  avg # of iterations =  2.7

     total cpu time spent up to now is     2256.7 secs

     total energy              =   -1443.47982655 Ry
     estimated scf accuracy    <       0.01140594 Ry

     iteration # 55     ecut=    60.00 Ry     beta= 0.70
     Davidson diagonalization with overlap
     ethr =  1.21E-07,  avg # of iterations =  8.4

     total cpu time spent up to now is     2266.9 secs

     total energy              =   -1443.47998631 Ry
     estimated scf accuracy    <       0.00009876 Ry

     iteration # 56     ecut=    60.00 Ry     beta= 0.70
     Davidson diagonalization with overlap
     ethr =  1.01E-07,  avg # of iterations =  8.7

     total cpu time spent up to now is     2275.3 secs

     total energy              =   -1443.47999959 Ry
     estimated scf accuracy    <       0.00101428 Ry

     iteration # 57     ecut=    60.00 Ry     beta= 0.70
     Davidson diagonalization with overlap
     ethr =  1.01E-07,  avg # of iterations =  1.0

     total cpu time spent up to now is     2280.1 secs

     total energy              =   -1443.47975561 Ry
     estimated scf accuracy    <       0.00096885 Ry

     iteration # 58     ecut=    60.00 Ry     beta= 0.70
     Davidson diagonalization with overlap
     ethr =  1.01E-07,  avg # of iterations =  8.4

     total cpu time spent up to now is     2291.5 secs

     total energy              =   -1443.48008516 Ry
     estimated scf accuracy    <       0.02745735 Ry

     iteration # 59     ecut=    60.00 Ry     beta= 0.70
     Davidson diagonalization with overlap
     ethr =  1.01E-07,  avg # of iterations =  8.2

     total cpu time spent up to now is     2301.5 secs

     total energy              =   -1443.47995606 Ry
     estimated scf accuracy    <       0.01005160 Ry

     iteration # 60     ecut=    60.00 Ry     beta= 0.70
     Davidson diagonalization with overlap
     ethr =  1.01E-07,  avg # of iterations =  8.4

     total cpu time spent up to now is     2310.6 secs

     total energy              =   -1443.47999294 Ry
     estimated scf accuracy    <       0.00236898 Ry

     iteration # 61     ecut=    60.00 Ry     beta= 0.70
     Davidson diagonalization with overlap
     ethr =  1.01E-07,  avg # of iterations =  1.0

     total cpu time spent up to now is     2315.4 secs

     total energy              =   -1443.47997453 Ry
     estimated scf accuracy    <       0.00223746 Ry

     iteration # 62     ecut=    60.00 Ry     beta= 0.70
     Davidson diagonalization with overlap
     ethr =  1.01E-07,  avg # of iterations =  1.4

     total cpu time spent up to now is     2320.4 secs

     total energy              =   -1443.47994343 Ry
     estimated scf accuracy    <       0.00210985 Ry

     iteration # 63     ecut=    60.00 Ry     beta= 0.70
     Davidson diagonalization with overlap
     ethr =  1.01E-07,  avg # of iterations =  6.2

     total cpu time spent up to now is     2327.5 secs

     total energy              =   -1443.47995809 Ry
     estimated scf accuracy    <       0.00040550 Ry

     iteration # 64     ecut=    60.00 Ry     beta= 0.70
     Davidson diagonalization with overlap
     ethr =  1.01E-07,  avg # of iterations =  1.3

     total cpu time spent up to now is     2332.5 secs

     total energy              =   -1443.47994460 Ry
     estimated scf accuracy    <       0.00034812 Ry

     iteration # 65     ecut=    60.00 Ry     beta= 0.70
     Davidson diagonalization with overlap
     ethr =  1.01E-07,  avg # of iterations =  6.5

     total cpu time spent up to now is     2339.7 secs

     total energy              =   -1443.47998645 Ry
     estimated scf accuracy    <       0.00084466 Ry

     iteration # 66     ecut=    60.00 Ry     beta= 0.70
     Davidson diagonalization with overlap
     ethr =  1.01E-07,  avg # of iterations =  1.7

     total cpu time spent up to now is     2344.8 secs

     total energy              =   -1443.48002689 Ry
     estimated scf accuracy    <       0.00068925 Ry

     iteration # 67     ecut=    60.00 Ry     beta= 0.70
     Davidson diagonalization with overlap
     ethr =  1.01E-07,  avg # of iterations =  4.7

     total cpu time spent up to now is     2351.3 secs

     total energy              =   -1443.48002680 Ry
     estimated scf accuracy    <       0.00256455 Ry

     iteration # 68     ecut=    60.00 Ry     beta= 0.70
     Davidson diagonalization with overlap
     ethr =  1.01E-07,  avg # of iterations =  1.4

     total cpu time spent up to now is     2356.3 secs

     total energy              =   -1443.48006823 Ry
     estimated scf accuracy    <       0.00242530 Ry

     iteration # 69     ecut=    60.00 Ry     beta= 0.70
     Davidson diagonalization with overlap
     ethr =  1.01E-07,  avg # of iterations =  1.7

     total cpu time spent up to now is     2361.4 secs

     total energy              =   -1443.48004559 Ry
     estimated scf accuracy    <       0.00264993 Ry

     iteration # 70     ecut=    60.00 Ry     beta= 0.70
     Davidson diagonalization with overlap
     ethr =  1.01E-07,  avg # of iterations =  1.0

     total cpu time spent up to now is     2366.2 secs

     total energy              =   -1443.48005958 Ry
     estimated scf accuracy    <       0.00259309 Ry

     iteration # 71     ecut=    60.00 Ry     beta= 0.70
     Davidson diagonalization with overlap
     ethr =  1.01E-07,  avg # of iterations =  1.0

     total cpu time spent up to now is     2371.0 secs

     total energy              =   -1443.48003445 Ry
     estimated scf accuracy    <       0.00263722 Ry

     iteration # 72     ecut=    60.00 Ry     beta= 0.70
     Davidson diagonalization with overlap
     ethr =  1.01E-07,  avg # of iterations =  1.0

     total cpu time spent up to now is     2375.8 secs

     total energy              =   -1443.48002202 Ry
     estimated scf accuracy    <       0.00254760 Ry

     iteration # 73     ecut=    60.00 Ry     beta= 0.70
     Davidson diagonalization with overlap
     ethr =  1.01E-07,  avg # of iterations =  1.2

     total cpu time spent up to now is     2380.7 secs

     total energy              =   -1443.47997761 Ry
     estimated scf accuracy    <       0.00245943 Ry

     iteration # 74     ecut=    60.00 Ry     beta= 0.70
     Davidson diagonalization with overlap
     ethr =  1.01E-07,  avg # of iterations =  7.1

     total cpu time spent up to now is     2388.2 secs

     total energy              =   -1443.47999311 Ry
     estimated scf accuracy    <       0.00074780 Ry

     iteration # 75     ecut=    60.00 Ry     beta= 0.70
     Davidson diagonalization with overlap
     ethr =  1.01E-07,  avg # of iterations =  1.0

     total cpu time spent up to now is     2393.0 secs

     total energy              =   -1443.47994937 Ry
     estimated scf accuracy    <       0.00073880 Ry

     iteration # 76     ecut=    60.00 Ry     beta= 0.70
     Davidson diagonalization with overlap
     ethr =  1.01E-07,  avg # of iterations =  7.8

     total cpu time spent up to now is     2401.3 secs

     total energy              =   -1443.48000008 Ry
     estimated scf accuracy    <       0.00101156 Ry

     iteration # 77     ecut=    60.00 Ry     beta= 0.70
     Davidson diagonalization with overlap
     ethr =  1.01E-07,  avg # of iterations =  2.4

     total cpu time spent up to now is     2406.6 secs

     total energy              =   -1443.47997589 Ry
     estimated scf accuracy    <       0.00083854 Ry

     iteration # 78     ecut=    60.00 Ry     beta= 0.70
     Davidson diagonalization with overlap
     ethr =  1.01E-07,  avg # of iterations =  7.3

     total cpu time spent up to now is     2414.3 secs

     total energy              =   -1443.47998589 Ry
     estimated scf accuracy    <       0.00010070 Ry

     iteration # 79     ecut=    60.00 Ry     beta= 0.70
     Davidson diagonalization with overlap
     ethr =  1.01E-07,  avg # of iterations =  1.7

     total cpu time spent up to now is     2419.4 secs

     total energy              =   -1443.47998786 Ry
     estimated scf accuracy    <       0.00003678 Ry

     iteration # 80     ecut=    60.00 Ry     beta= 0.70
     Davidson diagonalization with overlap
     ethr =  3.75E-08,  avg # of iterations =  2.3

     total cpu time spent up to now is     2424.8 secs

     total energy              =   -1443.47999890 Ry
     estimated scf accuracy    <       0.00024196 Ry

     iteration # 81     ecut=    60.00 Ry     beta= 0.70
     Davidson diagonalization with overlap
     ethr =  3.75E-08,  avg # of iterations =  1.0

     total cpu time spent up to now is     2429.6 secs

     total energy              =   -1443.47999606 Ry
     estimated scf accuracy    <       0.00023030 Ry

     iteration # 82     ecut=    60.00 Ry     beta= 0.70
     Davidson diagonalization with overlap
     ethr =  3.75E-08,  avg # of iterations =  1.0

     total cpu time spent up to now is     2434.4 secs

     total energy              =   -1443.47998992 Ry
     estimated scf accuracy    <       0.00021769 Ry

     iteration # 83     ecut=    60.00 Ry     beta= 0.70
     Davidson diagonalization with overlap
     ethr =  3.75E-08,  avg # of iterations =  2.1

     total cpu time spent up to now is     2439.7 secs

     total energy              =   -1443.47999784 Ry
     estimated scf accuracy    <       0.00002142 Ry

     iteration # 84     ecut=    60.00 Ry     beta= 0.70
     Davidson diagonalization with overlap
     ethr =  2.19E-08,  avg # of iterations =  1.7

     total cpu time spent up to now is     2444.9 secs

     total energy              =   -1443.47999319 Ry
     estimated scf accuracy    <       0.00003084 Ry

     iteration # 85     ecut=    60.00 Ry     beta= 0.70
     Davidson diagonalization with overlap
     ethr =  2.19E-08,  avg # of iterations =  7.3

     total cpu time spent up to now is     2452.8 secs

     total energy              =   -1443.48001364 Ry
     estimated scf accuracy    <       0.00013301 Ry

     iteration # 86     ecut=    60.00 Ry     beta= 0.70
     Davidson diagonalization with overlap
     ethr =  2.19E-08,  avg # of iterations =  7.9

     total cpu time spent up to now is     2461.5 secs

     total energy              =   -1443.48015330 Ry
     estimated scf accuracy    <       0.00190444 Ry

     iteration # 87     ecut=    60.00 Ry     beta= 0.70
     Davidson diagonalization with overlap
     ethr =  2.19E-08,  avg # of iterations =  7.5

     total cpu time spent up to now is     2471.4 secs

     total energy              =   -1443.48016068 Ry
     estimated scf accuracy    <       0.01041591 Ry

     iteration # 88     ecut=    60.00 Ry     beta= 0.70
     Davidson diagonalization with overlap
     ethr =  2.19E-08,  avg # of iterations =  7.3

     total cpu time spent up to now is     2479.1 secs

     total energy              =   -1443.47992959 Ry
     estimated scf accuracy    <       0.00828663 Ry

     iteration # 89     ecut=    60.00 Ry     beta= 0.70
     Davidson diagonalization with overlap
     ethr =  2.19E-08,  avg # of iterations =  8.1

     total cpu time spent up to now is     2489.5 secs

     total energy              =   -1443.48000402 Ry
     estimated scf accuracy    <       0.00071478 Ry

     iteration # 90     ecut=    60.00 Ry     beta= 0.70
     Davidson diagonalization with overlap
     ethr =  2.19E-08,  avg # of iterations =  2.8

     total cpu time spent up to now is     2495.0 secs

     total energy              =   -1443.47999614 Ry
     estimated scf accuracy    <       0.00067331 Ry

     iteration # 91     ecut=    60.00 Ry     beta= 0.70
     Davidson diagonalization with overlap
     ethr =  2.19E-08,  avg # of iterations =  2.2

     total cpu time spent up to now is     2500.3 secs

     total energy              =   -1443.47998131 Ry
     estimated scf accuracy    <       0.00057037 Ry

     iteration # 92     ecut=    60.00 Ry     beta= 0.70
     Davidson diagonalization with overlap
     ethr =  2.19E-08,  avg # of iterations =  7.8

     total cpu time spent up to now is     2508.6 secs

     total energy              =   -1443.47999879 Ry
     estimated scf accuracy    <       0.00009481 Ry

     iteration # 93     ecut=    60.00 Ry     beta= 0.70
     Davidson diagonalization with overlap
     ethr =  2.19E-08,  avg # of iterations =  1.0

     total cpu time spent up to now is     2513.4 secs

     total energy              =   -1443.47999719 Ry
     estimated scf accuracy    <       0.00009331 Ry

     iteration # 94     ecut=    60.00 Ry     beta= 0.70
     Davidson diagonalization with overlap
     ethr =  2.19E-08,  avg # of iterations =  1.0

     total cpu time spent up to now is     2518.2 secs

     total energy              =   -1443.47999649 Ry
     estimated scf accuracy    <       0.00008543 Ry

     iteration # 95     ecut=    60.00 Ry     beta= 0.70
     Davidson diagonalization with overlap
     ethr =  2.19E-08,  avg # of iterations =  1.0

     total cpu time spent up to now is     2523.1 secs

     total energy              =   -1443.47999692 Ry
     estimated scf accuracy    <       0.00008163 Ry

     iteration # 96     ecut=    60.00 Ry     beta= 0.70
     Davidson diagonalization with overlap
     ethr =  2.19E-08,  avg # of iterations =  1.0

     total cpu time spent up to now is     2527.9 secs

     total energy              =   -1443.47999558 Ry
     estimated scf accuracy    <       0.00008051 Ry

     iteration # 97     ecut=    60.00 Ry     beta= 0.70
     Davidson diagonalization with overlap
     ethr =  2.19E-08,  avg # of iterations =  1.3

     total cpu time spent up to now is     2532.8 secs

     total energy              =   -1443.47999395 Ry
     estimated scf accuracy    <       0.00007057 Ry

     iteration # 98     ecut=    60.00 Ry     beta= 0.70
     Davidson diagonalization with overlap
     ethr =  2.19E-08,  avg # of iterations =  3.4

     total cpu time spent up to now is     2538.6 secs

     total energy              =   -1443.47999561 Ry
     estimated scf accuracy    <       0.00000973 Ry

     iteration # 99     ecut=    60.00 Ry     beta= 0.70
     Davidson diagonalization with overlap
     ethr =  9.93E-09,  avg # of iterations =  3.0

     total cpu time spent up to now is     2544.3 secs

     total energy              =   -1443.47999725 Ry
     estimated scf accuracy    <       0.00000429 Ry

     iteration #100     ecut=    60.00 Ry     beta= 0.70
     Davidson diagonalization with overlap
     ethr =  4.38E-09,  avg # of iterations =  2.9

     total cpu time spent up to now is     2550.1 secs

     total energy              =   -1443.47999938 Ry
     estimated scf accuracy    <       0.00001230 Ry

     End of self-consistent calculation

     convergence NOT achieved after 100 iterations: stopping

     Writing config to output data dir ./K4ZrSnO6.save/

     init_run     :     17.24s CPU     17.47s WALL (       1 calls)
     electrons    :   2285.92s CPU   2358.03s WALL (       5 calls)
     update_pot   :     61.90s CPU     62.02s WALL (       4 calls)
     forces       :     35.74s CPU     36.07s WALL (       4 calls)
     stress       :     70.68s CPU     71.37s WALL (       4 calls)

     Called by init_run:
     wfcinit      :      3.81s CPU      3.91s WALL (       1 calls)
     potinit      :      4.44s CPU      4.46s WALL (       1 calls)
     hinit0       :      8.71s CPU      8.78s WALL (       1 calls)

     Called by electrons:
     c_bands      :   1756.49s CPU   1790.28s WALL (     352 calls)
     sum_band     :    272.64s CPU    294.02s WALL (     352 calls)
     v_of_rho     :      9.80s CPU     10.14s WALL (     357 calls)
     newd         :     69.18s CPU     84.38s WALL (     357 calls)
     PAW_pot      :    180.47s CPU    181.35s WALL (     361 calls)
     mix_rho      :      1.83s CPU      1.92s WALL (     352 calls)

     Called by c_bands:
     init_us_2    :     22.46s CPU     23.15s WALL (   27963 calls)
     init_us_2:cp :     22.36s CPU     23.09s WALL (   27963 calls)
     cegterg      :   1685.93s CPU   1718.60s WALL (   13728 calls)

     Called by *egterg:
     cdiaghg      :    544.62s CPU    551.68s WALL (   68207 calls)
     h_psi        :    816.12s CPU    836.17s WALL (   68402 calls)
     s_psi        :     76.42s CPU     77.21s WALL (   68402 calls)
     g_psi        :     12.36s CPU     12.46s WALL (   54635 calls)

     Called by h_psi:
     h_psi:calbec :     90.49s CPU     94.59s WALL (   68402 calls)
     vloc_psi     :    643.48s CPU    658.61s WALL (   68402 calls)
     add_vuspsi   :     77.44s CPU     78.28s WALL (   68402 calls)

     General routines
     calbec       :    124.93s CPU    130.92s WALL (   83066 calls)
     fft          :      5.37s CPU      5.79s WALL (    4737 calls)
     ffts         :      0.55s CPU      0.58s WALL (     709 calls)
     fftw         :    688.62s CPU    704.67s WALL ( 3843010 calls)
     interpolate  :      0.83s CPU      0.89s WALL (     357 calls)
     davcio       :      0.00s CPU      0.01s WALL (      57 calls)

     Parallel routines

     PWSCF        :  41m16.34s CPU  42m33.35s WALL


   This run was terminated on:   2: 7: 0   1Dec2025            

=------------------------------------------------------------------------------=
   JOB DONE.
=------------------------------------------------------------------------------=
STOP 255
STOP 255
STOP 255
STOP 255
STOP 255
STOP 255
STOP 255
STOP 255
STOP 255
STOP 255
STOP 255
STOP 255
STOP 255
STOP 255
STOP 255
STOP 255
--------------------------------------------------------------------------
Primary job  terminated normally, but 1 process returned
a non-zero exit code. Per user-direction, the job has been aborted.
--------------------------------------------------------------------------
--------------------------------------------------------------------------
mpirun detected that one or more processes exited with non-zero status, thus causing
the job to be terminated. The first process to do so was:

  Process name: [[57069,1],9]
  Exit code:    255
--------------------------------------------------------------------------
