
     Program PWSCF v.7.1 starts on 29Nov2025 at 20:47:19 

     This program is part of the open-source Quantum ESPRESSO suite
     for quantum simulation of materials; please cite
         "P. Giannozzi et al., J. Phys.:Condens. Matter 21 395502 (2009);
         "P. Giannozzi et al., J. Phys.:Condens. Matter 29 465901 (2017);
         "P. Giannozzi et al., J. Chem. Phys. 152 154105 (2020);
          URL http://www.quantum-espresso.org", 
     in publications or presentations arising from this work. More details at
     http://www.quantum-espresso.org/quote

     Parallel version (MPI & OpenMP), running on      16 processor cores
     Number of MPI processes:                16
     Threads/MPI process:                     1

     MPI processes distributed on     1 nodes
     57522 MiB available memory on the printing compute node when the environment starts

     Waiting for input...
     Reading input from standard input

     Current dimensions of program PWSCF are:
     Max number of different atomic species (ntypx) = 10
     Max number of k-points (npk) =  40000
     Max angular momentum in pseudopotentials (lmaxx) =  4
     Message from routine read_pp_mesh:
     mismatch in mesh size, discarding the one in header
     Message from routine read_pp_mesh:
     mismatch in mesh size, discarding the one in header
     Message from routine read_pp_mesh:
     mismatch in mesh size, discarding the one in header
     Message from routine read_pp_mesh:
     mismatch in mesh size, discarding the one in header
     Message from routine setup:
     using ibrav=0 with symmetry is DISCOURAGED, use correct ibrav instead

     R & G space division:  proc/nbgrp/npool/nimage =      16
     Subspace diagonalization in iterative solution of the eigenvalue problem:
     a serial algorithm will be used


     Parallelization info
     --------------------
     sticks:   dense  smooth     PW     G-vecs:    dense   smooth      PW
     Min         151     151     42                 5573     5573     820
     Max         152     152     43                 5577     5577     823
     Sum        2417    2417    673                89199    89199   13133

     Using Slab Decomposition



     bravais-lattice index     =            0
     lattice parameter (alat)  =      11.2511  a.u.
     unit-cell volume          =    1424.2554 (a.u.)^3
     number of atoms/cell      =           12
     number of atomic types    =            4
     number of electrons       =        98.00
     number of Kohn-Sham states=           49
     kinetic-energy cutoff     =      60.0000  Ry
     charge density cutoff     =     240.0000  Ry
     scf convergence threshold =      1.0E-10
     mixing beta               =       0.7000
     number of iterations used =            8  plain     mixing
     Exchange-correlation= SLA PW PBX PBC
                           (   1   4   3   4   0   0   0)

     celldm(1)=  11.251125  celldm(2)=   0.000000  celldm(3)=   0.000000
     celldm(4)=   0.000000  celldm(5)=   0.000000  celldm(6)=   0.000000

     crystal axes: (cart. coord. in units of alat)
               a(1) = (   1.000000   0.000000   0.000000 )  
               a(2) = (   0.000000   1.000000   0.000000 )  
               a(3) = (   0.000000   0.000000   1.000000 )  

     reciprocal axes: (cart. coord. in units 2 pi/alat)
               b(1) = (  1.000000  0.000000  0.000000 )  
               b(2) = (  0.000000  1.000000  0.000000 )  
               b(3) = (  0.000000  0.000000  1.000000 )  


     PseudoPot. # 1 for K  read from file:
     ./K.upf
     MD5 check sum: 9356cfae17991a8ac93a0af773ad5d28
     Pseudo is Projector augmented-wave + core cor, Zval =  9.0
     Generated using ATOMPAW code
     Shape of augmentation charge: SINC**2
     Using radial grid of 2342 points,  5 beta functions with: 
                l(1) =   0
                l(2) =   0
                l(3) =   1
                l(4) =   1
                l(5) =   2
     Q(r) pseudized with 0 coefficients 


     PseudoPot. # 2 for Zr read from file:
     ./Zr.upf
     MD5 check sum: 10be9e9715c592225794718718b87d8f
     Pseudo is Projector augmented-wave + core cor, Zval = 12.0
     Generated using ATOMPAW code
     Shape of augmentation charge: BESSEL
     Using radial grid of 2342 points,  6 beta functions with: 
                l(1) =   0
                l(2) =   0
                l(3) =   1
                l(4) =   1
                l(5) =   2
                l(6) =   2
     Q(r) pseudized with 0 coefficients 


     PseudoPot. # 3 for Sn read from file:
     ./Sn.upf
     MD5 check sum: f8d5c2bd65c7f969f3af92fc3a9f2821
     Pseudo is Projector augmented-wave + core cor, Zval = 14.0
     Generated using ATOMPAW code
     Shape of augmentation charge: BESSEL
     Using radial grid of 2342 points,  6 beta functions with: 
                l(1) =   0
                l(2) =   0
                l(3) =   1
                l(4) =   1
                l(5) =   2
                l(6) =   2
     Q(r) pseudized with 0 coefficients 


     PseudoPot. # 4 for O  read from file:
     ./O.upf
     MD5 check sum: 45fbb1c0d1f8837f1e386a2947d3aa26
     Pseudo is Projector augmented-wave + core cor, Zval =  6.0
     Generated using ATOMPAW code
     Shape of augmentation charge: SINC**2
     Using radial grid of 2342 points,  4 beta functions with: 
                l(1) =   0
                l(2) =   0
                l(3) =   1
                l(4) =   1
     Q(r) pseudized with 0 coefficients 


     atomic species   valence    mass     pseudopotential
        K              9.00    39.09800     K ( 1.00)
        Zr            12.00    91.22400     Zr( 1.00)
        Sn            14.00   118.71000     Sn( 1.00)
        O              6.00    15.99900     O ( 1.00)

      6 Sym. Ops. (no inversion) found



   Cartesian axes

     site n.     atom                  positions (alat units)
         1           K   tau(   1) = (   0.0000000   0.0000000   0.0000000  )
         2           K   tau(   2) = (   0.5000000   0.5000000   0.0000000  )
         3           K   tau(   3) = (   0.5000000   0.0000000   0.5000000  )
         4           K   tau(   4) = (   0.0000000   0.5000000   0.5000000  )
         5           Zr  tau(   5) = (   0.2500000   0.2500000   0.2500000  )
         6           Sn  tau(   6) = (   0.7500000   0.7500000   0.7500000  )
         7           O   tau(   7) = (   0.2500000   0.0000000   0.0000000  )
         8           O   tau(   8) = (   0.7500000   0.0000000   0.0000000  )
         9           O   tau(   9) = (   0.0000000   0.2500000   0.0000000  )
        10           O   tau(  10) = (   0.0000000   0.7500000   0.0000000  )
        11           O   tau(  11) = (   0.0000000   0.0000000   0.2500000  )
        12           O   tau(  12) = (   0.0000000   0.0000000   0.7500000  )

     number of k points=    44
                       cart. coord. in units 2pi/alat
        k(    1) = (   0.0000000   0.0000000   0.0000000), wk =   0.0058309
        k(    2) = (   0.0000000   0.0000000   0.1428571), wk =   0.0349854
        k(    3) = (   0.0000000   0.0000000   0.2857143), wk =   0.0349854
        k(    4) = (   0.0000000   0.0000000   0.4285714), wk =   0.0349854
        k(    5) = (   0.0000000   0.1428571   0.1428571), wk =   0.0349854
        k(    6) = (   0.0000000   0.1428571   0.2857143), wk =   0.0699708
        k(    7) = (   0.0000000   0.1428571   0.4285714), wk =   0.0699708
        k(    8) = (   0.0000000   0.2857143   0.2857143), wk =   0.0349854
        k(    9) = (   0.0000000   0.2857143   0.4285714), wk =   0.0699708
        k(   10) = (   0.0000000   0.4285714   0.4285714), wk =   0.0349854
        k(   11) = (   0.1428571   0.1428571   0.1428571), wk =   0.0116618
        k(   12) = (   0.1428571   0.1428571   0.2857143), wk =   0.0349854
        k(   13) = (   0.1428571   0.1428571   0.4285714), wk =   0.0349854
        k(   14) = (   0.1428571   0.2857143   0.2857143), wk =   0.0349854
        k(   15) = (   0.1428571   0.2857143   0.4285714), wk =   0.0699708
        k(   16) = (   0.1428571   0.4285714   0.4285714), wk =   0.0349854
        k(   17) = (   0.2857143   0.2857143   0.2857143), wk =   0.0116618
        k(   18) = (   0.2857143   0.2857143   0.4285714), wk =   0.0349854
        k(   19) = (   0.2857143   0.4285714   0.4285714), wk =   0.0349854
        k(   20) = (   0.4285714   0.4285714   0.4285714), wk =   0.0116618
        k(   21) = (  -0.1428571   0.0000000   0.1428571), wk =   0.0349854
        k(   22) = (  -0.1428571   0.0000000   0.2857143), wk =   0.0699708
        k(   23) = (  -0.1428571   0.0000000   0.4285714), wk =   0.0699708
        k(   24) = (  -0.2857143   0.0000000   0.2857143), wk =   0.0349854
        k(   25) = (  -0.2857143   0.0000000   0.4285714), wk =   0.0699708
        k(   26) = (  -0.4285714   0.0000000   0.4285714), wk =   0.0349854
        k(   27) = (   0.1428571  -0.1428571   0.1428571), wk =   0.0349854
        k(   28) = (   0.1428571  -0.1428571   0.2857143), wk =   0.0699708
        k(   29) = (  -0.2857143   0.1428571   0.1428571), wk =   0.0349854
        k(   30) = (   0.1428571  -0.1428571   0.4285714), wk =   0.0699708
        k(   31) = (  -0.4285714   0.1428571   0.1428571), wk =   0.0349854
        k(   32) = (   0.2857143  -0.1428571   0.2857143), wk =   0.0349854
        k(   33) = (  -0.2857143   0.1428571   0.2857143), wk =   0.0699708
        k(   34) = (   0.2857143  -0.1428571   0.4285714), wk =   0.0699708
        k(   35) = (  -0.2857143   0.1428571   0.4285714), wk =   0.0699708
        k(   36) = (  -0.4285714   0.2857143   0.1428571), wk =   0.0699708
        k(   37) = (   0.4285714  -0.1428571   0.4285714), wk =   0.0349854
        k(   38) = (  -0.4285714   0.1428571   0.4285714), wk =   0.0699708
        k(   39) = (   0.2857143  -0.2857143   0.2857143), wk =   0.0349854
        k(   40) = (   0.2857143  -0.2857143   0.4285714), wk =   0.0699708
        k(   41) = (  -0.4285714   0.2857143   0.2857143), wk =   0.0349854
        k(   42) = (   0.4285714  -0.2857143   0.4285714), wk =   0.0349854
        k(   43) = (  -0.4285714   0.2857143   0.4285714), wk =   0.0699708
        k(   44) = (   0.4285714  -0.4285714   0.4285714), wk =   0.0349854

     Dense  grid:    89199 G-vectors     FFT dimensions: (  60,  60,  60)

     Estimated max dynamical RAM per process >      50.98 MB

     Estimated total dynamical RAM >     815.74 MB

     Check: negative core charge=   -0.000002

     Initial potential from superposition of free atoms

     starting charge      97.9154, renormalised to      98.0000
     Starting wfcs are  136 randomized atomic wfcs
     Checking if some PAW data can be deallocated... 

     total cpu time spent up to now is        7.5 secs

     per-process dynamical memory:    71.7 Mb

     Self-consistent Calculation

     iteration #  1     ecut=    60.00 Ry     beta= 0.70
     Davidson diagonalization with overlap
     ethr =  1.00E-02,  avg # of iterations =  2.1

     total cpu time spent up to now is       13.8 secs

     total energy              =   -1445.89880780 Ry
     estimated scf accuracy    <       3.82157888 Ry

     iteration #  2     ecut=    60.00 Ry     beta= 0.70
     Davidson diagonalization with overlap
     ethr =  3.90E-03,  avg # of iterations =  6.4

     total cpu time spent up to now is       26.1 secs

     total energy              =   -1441.45251542 Ry
     estimated scf accuracy    <      41.66213051 Ry

     iteration #  3     ecut=    60.00 Ry     beta= 0.70
     Davidson diagonalization with overlap
     ethr =  3.90E-03,  avg # of iterations =  8.1

     total cpu time spent up to now is       38.8 secs

     total energy              =   -1447.60299108 Ry
     estimated scf accuracy    <       3.47992796 Ry

     iteration #  4     ecut=    60.00 Ry     beta= 0.70
     Davidson diagonalization with overlap
     ethr =  3.55E-03,  avg # of iterations =  6.3

     total cpu time spent up to now is       46.8 secs

     total energy              =   -1448.08207385 Ry
     estimated scf accuracy    <       0.90580280 Ry

     iteration #  5     ecut=    60.00 Ry     beta= 0.70
     Davidson diagonalization with overlap
     ethr =  9.24E-04,  avg # of iterations =  3.7

     total cpu time spent up to now is       53.4 secs

     total energy              =   -1448.06699811 Ry
     estimated scf accuracy    <       0.43413825 Ry

     iteration #  6     ecut=    60.00 Ry     beta= 0.70
     Davidson diagonalization with overlap
     ethr =  4.43E-04,  avg # of iterations =  3.6

     total cpu time spent up to now is       59.9 secs

     total energy              =   -1448.06374029 Ry
     estimated scf accuracy    <       0.12049319 Ry

     iteration #  7     ecut=    60.00 Ry     beta= 0.70
     Davidson diagonalization with overlap
     ethr =  1.23E-04,  avg # of iterations =  5.3

     total cpu time spent up to now is       67.8 secs

     total energy              =   -1448.07696440 Ry
     estimated scf accuracy    <       0.00748915 Ry

     iteration #  8     ecut=    60.00 Ry     beta= 0.70
     Davidson diagonalization with overlap
     ethr =  7.64E-06,  avg # of iterations =  6.1

     total cpu time spent up to now is       78.0 secs

     total energy              =   -1448.07947333 Ry
     estimated scf accuracy    <       0.00243789 Ry

     iteration #  9     ecut=    60.00 Ry     beta= 0.70
     Davidson diagonalization with overlap
     ethr =  2.49E-06,  avg # of iterations =  6.1

     total cpu time spent up to now is       87.0 secs

     total energy              =   -1448.07988935 Ry
     estimated scf accuracy    <       0.00064932 Ry

     iteration # 10     ecut=    60.00 Ry     beta= 0.70
     Davidson diagonalization with overlap
     ethr =  6.63E-07,  avg # of iterations =  7.4

     total cpu time spent up to now is       96.4 secs

     total energy              =   -1448.07996043 Ry
     estimated scf accuracy    <       0.00049007 Ry

     iteration # 11     ecut=    60.00 Ry     beta= 0.70
     Davidson diagonalization with overlap
     ethr =  5.00E-07,  avg # of iterations =  5.1

     total cpu time spent up to now is      103.9 secs

     total energy              =   -1448.08000901 Ry
     estimated scf accuracy    <       0.00000916 Ry

     iteration # 12     ecut=    60.00 Ry     beta= 0.70
     Davidson diagonalization with overlap
     ethr =  9.35E-09,  avg # of iterations =  6.6

     total cpu time spent up to now is      116.1 secs

     total energy              =   -1448.08001305 Ry
     estimated scf accuracy    <       0.00000993 Ry

     iteration # 13     ecut=    60.00 Ry     beta= 0.70
     Davidson diagonalization with overlap
     ethr =  9.35E-09,  avg # of iterations =  5.7

     total cpu time spent up to now is      124.5 secs

     total energy              =   -1448.08001422 Ry
     estimated scf accuracy    <       0.00000034 Ry

     iteration # 14     ecut=    60.00 Ry     beta= 0.70
     Davidson diagonalization with overlap
     ethr =  3.47E-10,  avg # of iterations =  6.4

     total cpu time spent up to now is      135.0 secs

     total energy              =   -1448.08001435 Ry
     estimated scf accuracy    <       0.00000037 Ry

     iteration # 15     ecut=    60.00 Ry     beta= 0.70
     Davidson diagonalization with overlap
     ethr =  3.47E-10,  avg # of iterations =  5.7

     total cpu time spent up to now is      142.5 secs

     total energy              =   -1448.08001438 Ry
     estimated scf accuracy    <       0.00000002 Ry

     iteration # 16     ecut=    60.00 Ry     beta= 0.70
     Davidson diagonalization with overlap
     ethr =  1.54E-11,  avg # of iterations =  7.3

     total cpu time spent up to now is      152.7 secs

     total energy              =   -1448.08001438 Ry
     estimated scf accuracy    <          1.5E-09 Ry

     iteration # 17     ecut=    60.00 Ry     beta= 0.70
     Davidson diagonalization with overlap
     ethr =  1.54E-12,  avg # of iterations =  6.0

     total cpu time spent up to now is      162.5 secs

     total energy              =   -1448.08001438 Ry
     estimated scf accuracy    <          2.7E-10 Ry

     iteration # 18     ecut=    60.00 Ry     beta= 0.70
     Davidson diagonalization with overlap
     ethr =  2.79E-13,  avg # of iterations =  5.7

     total cpu time spent up to now is      171.9 secs

     End of self-consistent calculation

          k = 0.0000 0.0000 0.0000 ( 11075 PWs)   bands (ev):

   -41.0992 -29.7763 -23.7600 -23.7600 -23.7410 -20.1786 -19.4029 -19.4029
   -17.8521 -17.8521 -17.8075 -14.4715 -14.4715 -14.3342 -14.3342 -14.1982
   -11.6845 -11.6845  -8.7209  -7.9834  -7.6375  -7.6375  -7.1671  -7.1671
    -7.0546  -7.0399  -7.0354  -7.0354  -4.4338  -4.4338  -4.3369  -1.4075
    -0.1199  -0.1199   1.1342   1.1342   1.8246   3.1177   3.1177   3.6194
     3.6194   3.9999   4.3796   5.6060   5.6060   6.4246   6.6600   8.0599
     8.5919

          k = 0.0000 0.0000 0.1429 ( 11148 PWs)   bands (ev):

   -41.0992 -29.7763 -23.7624 -23.7600 -23.7386 -20.1792 -19.4033 -19.4031
   -17.8529 -17.8517 -17.8075 -14.4729 -14.4714 -14.3344 -14.3341 -14.1978
   -11.6822 -11.6740  -8.7312  -7.9538  -7.6468  -7.6423  -7.1642  -7.1590
    -7.0576  -7.0413  -7.0360  -7.0346  -4.4952  -4.4302  -4.3574  -1.4081
    -0.1232  -0.1218   1.1375   1.2355   1.8095   3.1232   3.1325   3.5942
     3.6281   4.0858   4.3842   5.5798   5.5849   6.4108   6.7044   8.0374
     8.5067

          k = 0.0000 0.0000 0.2857 ( 11208 PWs)   bands (ev):

   -41.0992 -29.7762 -23.7664 -23.7599 -23.7344 -20.1805 -19.4042 -19.4036
   -17.8547 -17.8509 -17.8074 -14.4758 -14.4712 -14.3348 -14.3339 -14.1966
   -11.6770 -11.6502  -8.7511  -7.8840  -7.6737  -7.6530  -7.1573  -7.1379
    -7.0656  -7.0466  -7.0356  -7.0331  -4.6570  -4.4220  -4.3751  -1.4096
    -0.1303  -0.1258   1.1450   1.4570   1.7785   3.1357   3.1765   3.5553
     3.6461   4.2481   4.3981   5.5264   5.5364   6.3795   6.8263   7.9865
     8.3555

          k = 0.0000 0.0000 0.4286 ( 11184 PWs)   bands (ev):

   -41.0992 -29.7762 -23.7690 -23.7598 -23.7317 -20.1816 -19.4049 -19.4040
   -17.8562 -17.8502 -17.8072 -14.4782 -14.4711 -14.3352 -14.3337 -14.1958
   -11.6729 -11.6312  -8.7642  -7.8134  -7.7122  -7.6614  -7.1511  -7.1153
    -7.0756  -7.0519  -7.0349  -7.0321  -4.7889  -4.4155  -4.3837  -1.4109
    -0.1358  -0.1286   1.1511   1.6176   1.7694   3.1460   3.2219   3.5293
     3.6588   4.3557   4.4132   5.4931   5.4964   6.3537   6.9644   7.9158
     8.2548

          k = 0.0000 0.1429 0.1429 ( 11175 PWs)   bands (ev):

   -41.0992 -29.7762 -23.7619 -23.7611 -23.7378 -20.1801 -19.4035 -19.4034
   -17.8531 -17.8518 -17.8073 -14.4747 -14.4717 -14.3345 -14.3341 -14.1969
   -11.6735 -11.6675  -8.7534  -7.9134  -7.6572  -7.6425  -7.1607  -7.1494
    -7.0635  -7.0418  -7.0387  -7.0366  -4.5051  -4.4699  -4.3842  -1.4061
    -0.1278  -0.1251   1.1867   1.2888   1.7740   3.1409   3.1495   3.6100
     3.6115   4.1783   4.3925   5.5463   5.5501   6.3971   6.7707   8.0175
     8.4530

          k = 0.0000 0.1429 0.2857 ( 11166 PWs)   bands (ev):

   -41.0992 -29.7762 -23.7652 -23.7610 -23.7344 -20.1813 -19.4044 -19.4039
   -17.8547 -17.8512 -17.8073 -14.4768 -14.4717 -14.3348 -14.3339 -14.1959
   -11.6678 -11.6450  -8.7666  -7.8527  -7.6802  -7.6518  -7.1552  -7.1278
    -7.0731  -7.0488  -7.0390  -7.0346  -4.6522  -4.4786  -4.3952  -1.4097
    -0.1377  -0.1298   1.2115   1.4937   1.7558   3.1549   3.1927   3.5778
     3.6357   4.3080   4.4090   5.4813   5.5063   6.3644   6.9110   8.0152
     8.3244

          k = 0.0000 0.1429 0.4286 ( 11174 PWs)   bands (ev):

   -41.0992 -29.7761 -23.7683 -23.7608 -23.7314 -20.1820 -19.4051 -19.4043
   -17.8562 -17.8508 -17.8075 -14.4777 -14.4714 -14.3351 -14.3338 -14.1957
   -11.6662 -11.6265  -8.7619  -7.8053  -7.7133  -7.6596  -7.1513  -7.1084
    -7.0811  -7.0547  -7.0375  -7.0318  -4.7826  -4.4759  -4.3973  -1.4161
    -0.1450  -0.1326   1.2216   1.6519   1.7815   3.1564   3.2322   3.5442
     3.6609   4.3649   4.4237   5.4418   5.4838   6.3370   7.0456   7.9888
     8.2471

          k = 0.0000 0.2857 0.2857 ( 11180 PWs)   bands (ev):

   -41.0992 -29.7761 -23.7648 -23.7634 -23.7322 -20.1823 -19.4051 -19.4047
   -17.8553 -17.8518 -17.8077 -14.4766 -14.4722 -14.3349 -14.3341 -14.1957
   -11.6587 -11.6288  -8.7612  -7.8198  -7.6955  -7.6547  -7.1530  -7.1103
    -7.0834  -7.0529  -7.0454  -7.0307  -4.6519  -4.6310  -4.3994  -1.4198
    -0.1541  -0.1352   1.3035   1.6357   1.7741   3.1715   3.2235   3.5821
     3.6489   4.3533   4.4302   5.3973   5.4773   6.3286   7.0750   8.1136
     8.3694

          k = 0.0000 0.2857 0.4286 ( 11168 PWs)   bands (ev):

   -41.0992 -29.7761 -23.7673 -23.7632 -23.7298 -20.1826 -19.4058 -19.4052
   -17.8564 -17.8519 -17.8083 -14.4754 -14.4721 -14.3352 -14.3343 -14.1960
   -11.6583 -11.6121  -8.7390  -7.8045  -7.7124  -7.6600  -7.1514  -7.1026
    -7.0858  -7.0570  -7.0465  -7.0262  -4.7686  -4.6335  -4.4005  -1.4321
    -0.1664  -0.1384   1.3374   1.7734   1.8366   3.1641   3.2575   3.5503
     3.6891   4.3448   4.4483   5.3420   5.4647   6.2985   7.2211   8.1728
     8.2611

          k = 0.0000 0.4286 0.4286 ( 11194 PWs)   bands (ev):

   -41.0992 -29.7760 -23.7666 -23.7653 -23.7284 -20.1830 -19.4064 -19.4057
   -17.8571 -17.8525 -17.8090 -14.4730 -14.4725 -14.3353 -14.3346 -14.1966
   -11.6568 -11.5971  -8.7117  -7.8072  -7.7117  -7.6658  -7.1499  -7.1102
    -7.0779  -7.0578  -7.0549  -7.0214  -4.7578  -4.7553  -4.4021  -1.4467
    -0.1831  -0.1422   1.3909   1.8855   1.9204   3.1549   3.2895   3.5332
     3.7297   4.3079   4.4711   5.2705   5.4490   6.2668   7.3828   8.1752
     8.4362

          k = 0.1429 0.1429 0.1429 ( 11200 PWs)   bands (ev):

   -41.0992 -29.7762 -23.7611 -23.7611 -23.7386 -20.1812 -19.4038 -19.4038
   -17.8525 -17.8525 -17.8068 -14.4748 -14.4748 -14.3342 -14.3342 -14.1957
   -11.6617 -11.6617  -8.7860  -7.8664  -7.6515  -7.6515  -7.1456  -7.1456
    -7.0741  -7.0486  -7.0486  -7.0315  -4.4952  -4.4952  -4.4441  -1.4032
    -0.1317  -0.1317   1.2879   1.2879   1.7287   3.1713   3.1713   3.6111
     3.6111   4.2751   4.4042   5.5059   5.5059   6.3834   6.8424   8.0136
     8.5081

          k = 0.1429 0.1429 0.2857 ( 11167 PWs)   bands (ev):

   -41.0992 -29.7762 -23.7639 -23.7610 -23.7356 -20.1823 -19.4047 -19.4043
   -17.8543 -17.8518 -17.8069 -14.4771 -14.4740 -14.3346 -14.3340 -14.1949
   -11.6575 -11.6382  -8.7941  -7.8157  -7.6674  -7.6598  -7.1383  -7.1216
    -7.0877  -7.0602  -7.0520  -7.0268  -4.6470  -4.4867  -4.4640  -1.4105
    -0.1437  -0.1376   1.2944   1.5113   1.7283   3.1858   3.2179   3.5833
     3.6366   4.3710   4.4229   5.4355   5.4646   6.3495   6.9786   8.0719
     8.3543

          k = 0.1429 0.1429 0.4286 ( 11180 PWs)   bands (ev):

   -41.0992 -29.7761 -23.7674 -23.7609 -23.7321 -20.1827 -19.4054 -19.4047
   -17.8559 -17.8515 -17.8075 -14.4770 -14.4731 -14.3350 -14.3340 -14.1953
   -11.6580 -11.6206  -8.7733  -7.7874  -7.7033  -7.6611  -7.1325  -7.1157
    -7.0844  -7.0679  -7.0497  -7.0233  -4.7760  -4.4860  -4.4614  -1.4226
    -0.1520  -0.1411   1.3035   1.6674   1.7916   3.1807   3.2513   3.5458
     3.6699   4.3833   4.4369   5.3972   5.4506   6.3206   7.0982   8.0733
     8.3352

          k = 0.1429 0.2857 0.2857 ( 11188 PWs)   bands (ev):

   -41.0992 -29.7761 -23.7634 -23.7629 -23.7340 -20.1832 -19.4053 -19.4050
   -17.8549 -17.8526 -17.8074 -14.4763 -14.4746 -14.3347 -14.3342 -14.1949
   -11.6467 -11.6239  -8.7867  -7.7906  -7.6736  -7.6616  -7.1273  -7.1044
    -7.1040  -7.0686  -7.0644  -7.0205  -4.6418  -4.6348  -4.4740  -1.4255
    -0.1596  -0.1469   1.4068   1.6336   1.7591   3.2087   3.2497   3.5890
     3.6529   4.3938   4.4456   5.3635   5.4273   6.3123   7.1195   8.2264
     8.3388

          k = 0.1429 0.2857 0.4286 ( 11170 PWs)   bands (ev):

   -41.0992 -29.7761 -23.7664 -23.7627 -23.7312 -20.1832 -19.4060 -19.4055
   -17.8561 -17.8528 -17.8083 -14.4746 -14.4735 -14.3351 -14.3344 -14.1959
   -11.6476 -11.6089  -8.7495  -7.7924  -7.6934  -7.6609  -7.1351  -7.1138
    -7.0801  -7.0744  -7.0643  -7.0164  -4.7626  -4.6320  -4.4723  -1.4432
    -0.1722  -0.1513   1.4390   1.7709   1.8487   3.1968   3.2756   3.5630
     3.6958   4.3570   4.4628   5.3169   5.4217   6.2804   7.2511   8.2065
     8.3006

          k = 0.1429 0.4286 0.4286 ( 11172 PWs)   bands (ev):

   -41.0992 -29.7760 -23.7655 -23.7653 -23.7295 -20.1832 -19.4066 -19.4061
   -17.8570 -17.8534 -17.8094 -14.4725 -14.4720 -14.3353 -14.3348 -14.1970
   -11.6461 -11.5969  -8.7055  -7.8176  -7.6869  -7.6651  -7.1539  -7.1069
    -7.0805  -7.0678  -7.0661  -7.0130  -4.7537  -4.7508  -4.4713  -1.4624
    -0.1891  -0.1566   1.4967   1.9063   1.9202   3.1840   3.2974   3.5641
     3.7341   4.3045   4.4848   5.2636   5.4111   6.2464   7.4144   8.1663
     8.3916

          k = 0.2857 0.2857 0.2857 ( 11179 PWs)   bands (ev):

   -41.0992 -29.7760 -23.7633 -23.7633 -23.7336 -20.1837 -19.4059 -19.4059
   -17.8545 -17.8545 -17.8082 -14.4745 -14.4745 -14.3347 -14.3347 -14.1956
   -11.6240 -11.6240  -8.7662  -7.7907  -7.6615  -7.6615  -7.1329  -7.0961
    -7.0961  -7.0827  -7.0827  -7.0125  -4.6361  -4.6361  -4.6219  -1.4496
    -0.1692  -0.1692   1.6393   1.6393   1.8095   3.2558   3.2558   3.6442
     3.6442   4.3777   4.4715   5.3482   5.3482   6.2713   7.2511   8.2925
     8.2925

          k = 0.2857 0.2857 0.4286 ( 11188 PWs)   bands (ev):

   -41.0992 -29.7760 -23.7656 -23.7632 -23.7315 -20.1834 -19.4066 -19.4063
   -17.8561 -17.8546 -17.8096 -14.4725 -14.4720 -14.3352 -14.3349 -14.1971
   -11.6290 -11.6076  -8.7118  -7.8208  -7.6711  -7.6545  -7.1581  -7.1001
    -7.0859  -7.0840  -7.0706  -7.0078  -4.7513  -4.6392  -4.6116  -1.4737
    -0.1852  -0.1755   1.6484   1.8093   1.9074   3.2364   3.2784   3.6229
     3.7079   4.3193   4.4910   5.2965   5.3590   6.2359   7.3910   8.2229
     8.2667

          k = 0.2857 0.4286 0.4286 ( 11194 PWs)   bands (ev):

   -41.0992 -29.7759 -23.7652 -23.7648 -23.7304 -20.1830 -19.4072 -19.4069
   -17.8570 -17.8555 -17.8111 -14.4700 -14.4694 -14.3355 -14.3353 -14.1988
   -11.6242 -11.6015  -8.6474  -7.8710  -7.6565  -7.6561  -7.1815  -7.1031
    -7.1015  -7.0700  -7.0594  -7.0032  -4.7520  -4.7356  -4.6157  -1.5003
    -0.2010  -0.1868   1.7365   1.9245   1.9784   3.2333   3.2857   3.6563
     3.7396   4.2615   4.5146   5.2719   5.3400   6.1981   7.5589   8.1924
     8.3270

          k = 0.4286 0.4286 0.4286 ( 11221 PWs)   bands (ev):

   -41.0992 -29.7759 -23.7650 -23.7650 -23.7303 -20.1825 -19.4076 -19.4076
   -17.8572 -17.8572 -17.8127 -14.4669 -14.4669 -14.3358 -14.3358 -14.2007
   -11.6074 -11.6074  -8.5698  -7.9353  -7.6463  -7.6463  -7.2029  -7.1151
    -7.1151  -7.0549  -7.0549  -6.9972  -4.7541  -4.7541  -4.6908  -1.5318
    -0.2097  -0.2097   1.9300   1.9300   2.0503   3.2662   3.2662   3.7387
     3.7387   4.2124   4.5413   5.2851   5.2851   6.1578   7.7321   8.2995
     8.2995

          k =-0.1429 0.0000 0.1429 ( 11175 PWs)   bands (ev):

   -41.0992 -29.7762 -23.7648 -23.7604 -23.7358 -20.1794 -19.4036 -19.4034
   -17.8530 -17.8522 -17.8078 -14.4723 -14.4715 -14.3345 -14.3343 -14.1979
   -11.6794 -11.6675  -8.7195  -7.9466  -7.6627  -7.6407  -7.1597  -7.1579
    -7.0567  -7.0454  -7.0333  -7.0310  -4.5097  -4.4739  -4.3753  -1.4139
    -0.1265  -0.1238   1.1922   1.2882   1.8348   3.1208   3.1355   3.5689
     3.6411   4.1213   4.3866   5.5600   5.5787   6.3959   6.7332   8.0454
     8.4378

          k =-0.1429 0.0000 0.2857 ( 11166 PWs)   bands (ev):

   -41.0992 -29.7762 -23.7679 -23.7606 -23.7323 -20.1805 -19.4045 -19.4039
   -17.8546 -17.8517 -17.8080 -14.4741 -14.4713 -14.3348 -14.3341 -14.1972
   -11.6743 -11.6458  -8.7267  -7.8920  -7.6890  -7.6476  -7.1549  -7.1416
    -7.0613  -7.0511  -7.0330  -7.0285  -4.6546  -4.4814  -4.3893  -1.4194
    -0.1361  -0.1282   1.2172   1.4935   1.8305   3.1287   3.1735   3.5404
     3.6634   4.2342   4.4014   5.5028   5.5386   6.3630   6.8541   8.0260
     8.3422

          k =-0.1429 0.0000 0.4286 ( 11174 PWs)   bands (ev):

   -41.0992 -29.7761 -23.7693 -23.7607 -23.7306 -20.1817 -19.4052 -19.4043
   -17.8562 -17.8510 -17.8078 -14.4765 -14.4712 -14.3352 -14.3339 -14.1962
   -11.6690 -11.6270  -8.7448  -7.8235  -7.7166  -7.6569  -7.1512  -7.1194
    -7.0713  -7.0556  -7.0346  -7.0291  -4.7831  -4.4767  -4.3956  -1.4205
    -0.1443  -0.1319   1.2239   1.6540   1.8120   3.1446   3.2237   3.5287
     3.6727   4.3314   4.4203   5.4531   5.4966   6.3364   7.0135   7.9746
     8.2952

          k =-0.2857 0.0000 0.2857 ( 11180 PWs)   bands (ev):

   -41.0992 -29.7761 -23.7691 -23.7616 -23.7299 -20.1813 -19.4052 -19.4046
   -17.8552 -17.8524 -17.8086 -14.4731 -14.4716 -14.3349 -14.3345 -14.1973
   -11.6679 -11.6287  -8.7118  -7.8667  -7.7087  -7.6493  -7.1496  -7.1375
    -7.0627  -7.0564  -7.0358  -7.0238  -4.6634  -4.6206  -4.3968  -1.4317
    -0.1521  -0.1333   1.3100   1.6339   1.8726   3.1289   3.2022   3.5264
     3.6941   4.2657   4.4203   5.4256   5.5119   6.3268   6.9937   8.1027
     8.2464

          k =-0.2857 0.0000 0.4286 ( 11168 PWs)   bands (ev):

   -41.0992 -29.7761 -23.7690 -23.7625 -23.7289 -20.1822 -19.4058 -19.4051
   -17.8564 -17.8522 -17.8087 -14.4740 -14.4717 -14.3352 -14.3344 -14.1968
   -11.6623 -11.6121  -8.7171  -7.8243  -7.7205  -7.6563  -7.1495  -7.1214
    -7.0700  -7.0596  -7.0416  -7.0231  -4.7696  -4.6322  -4.3999  -1.4374
    -0.1656  -0.1375   1.3399   1.7768   1.8776   3.1436   3.2484   3.5254
     3.7091   4.3071   4.4438   5.3557   5.4777   6.2978   7.1770   8.1249
     8.2501

          k =-0.4286 0.0000 0.4286 ( 11194 PWs)   bands (ev):

   -41.0992 -29.7760 -23.7680 -23.7643 -23.7280 -20.1828 -19.4064 -19.4057
   -17.8571 -17.8526 -17.8092 -14.4728 -14.4719 -14.3353 -14.3347 -14.1970
   -11.6586 -11.5970  -8.7018  -7.8149  -7.7177  -7.6631  -7.1480  -7.1194
    -7.0695  -7.0628  -7.0505  -7.0199  -4.7650  -4.7478  -4.4020  -1.4490
    -0.1827  -0.1418   1.3918   1.8984   1.9287   3.1440   3.2862   3.5208
     3.7394   4.2922   4.4692   5.2767   5.4537   6.2665   7.3593   8.1631
     8.3321

          k = 0.1429-0.1429 0.1429 ( 11200 PWs)   bands (ev):

   -41.0992 -29.7762 -23.7655 -23.7610 -23.7344 -20.1799 -19.4038 -19.4038
   -17.8531 -17.8526 -17.8080 -14.4739 -14.4703 -14.3346 -14.3343 -14.1977
   -11.6706 -11.6647  -8.7210  -7.9267  -7.6753  -7.6396  -7.1631  -7.1477
    -7.0585  -7.0463  -7.0356  -7.0289  -4.5089  -4.5040  -4.4202  -1.4169
    -0.1294  -0.1290   1.2890   1.2964   1.8330   3.1349   3.1364   3.5752
     3.6403   4.1712   4.3926   5.5348   5.5560   6.3807   6.7884   8.0450
     8.3801

          k = 0.1429-0.1429 0.2857 ( 11167 PWs)   bands (ev):

   -41.0992 -29.7762 -23.7674 -23.7617 -23.7316 -20.1809 -19.4047 -19.4043
   -17.8549 -17.8520 -17.8083 -14.4754 -14.4697 -14.3350 -14.3342 -14.1972
   -11.6639 -11.6453  -8.7227  -7.8810  -7.6975  -7.6446  -7.1649  -7.1287
    -7.0642  -7.0474  -7.0387  -7.0273  -4.6518  -4.4958  -4.4472  -1.4234
    -0.1416  -0.1345   1.2975   1.5196   1.8280   3.1397   3.1782   3.5769
     3.6509   4.2657   4.4102   5.4847   5.5039   6.3462   6.9391   8.0484
     8.2776

          k =-0.2857 0.1429 0.1429 ( 11167 PWs)   bands (ev):

   -41.0992 -29.7762 -23.7684 -23.7609 -23.7313 -20.1807 -19.4047 -19.4043
   -17.8544 -17.8525 -17.8084 -14.4730 -14.4716 -14.3348 -14.3344 -14.1975
   -11.6685 -11.6419  -8.7152  -7.8890  -7.6969  -7.6450  -7.1534  -7.1415
    -7.0597  -7.0568  -7.0348  -7.0236  -4.6500  -4.5038  -4.4413  -1.4274
    -0.1404  -0.1348   1.3052   1.5107   1.8607   3.1407   3.1678   3.5395
     3.6757   4.2408   4.4082   5.4748   5.5249   6.3463   6.8991   8.0569
     8.3478

          k = 0.1429-0.1429 0.4286 ( 11180 PWs)   bands (ev):

   -41.0992 -29.7761 -23.7690 -23.7619 -23.7297 -20.1817 -19.4054 -19.4048
   -17.8564 -17.8515 -17.8084 -14.4761 -14.4697 -14.3353 -14.3341 -14.1967
   -11.6611 -11.6271  -8.7223  -7.8424  -7.7136  -7.6528  -7.1663  -7.1079
    -7.0740  -7.0469  -7.0413  -7.0271  -4.7783  -4.4894  -4.4529  -1.4288
    -0.1514  -0.1384   1.3033   1.6878   1.8319   3.1461   3.2219   3.5695
     3.6652   4.3229   4.4287   5.4444   5.4694   6.3176   7.1091   8.0242
     8.2208

          k =-0.4286 0.1429 0.1429 ( 11180 PWs)   bands (ev):

   -41.0992 -29.7761 -23.7692 -23.7609 -23.7304 -20.1820 -19.4054 -19.4047
   -17.8559 -17.8518 -17.8082 -14.4746 -14.4727 -14.3351 -14.3342 -14.1964
   -11.6629 -11.6223  -8.7389  -7.8215  -7.7141  -7.6546  -7.1350  -7.1343
    -7.0678  -7.0661  -7.0414  -7.0218  -4.7762  -4.4936  -4.4523  -1.4301
    -0.1505  -0.1398   1.3083   1.6712   1.8461   3.1600   3.2287   3.5259
     3.6881   4.3255   4.4303   5.4156   5.4765   6.3192   7.0550   8.0395
     8.3664

          k = 0.2857-0.1429 0.2857 ( 11188 PWs)   bands (ev):

   -41.0992 -29.7761 -23.7673 -23.7634 -23.7299 -20.1816 -19.4054 -19.4051
   -17.8556 -17.8527 -17.8089 -14.4750 -14.4691 -14.3352 -14.3344 -14.1973
   -11.6509 -11.6350  -8.7046  -7.8701  -7.7026  -7.6460  -7.1724  -7.1140
    -7.0702  -7.0457  -7.0435  -7.0259  -4.6588  -4.6211  -4.4661  -1.4365
    -0.1576  -0.1434   1.4084   1.6441   1.8509   3.1588   3.1985   3.6295
     3.6356   4.2974   4.4323   5.4259   5.4600   6.3080   7.1233   8.1106
     8.3093

          k =-0.2857 0.1429 0.2857 ( 11188 PWs)   bands (ev):

   -41.0992 -29.7761 -23.7689 -23.7621 -23.7295 -20.1814 -19.4054 -19.4050
   -17.8551 -17.8532 -17.8091 -14.4737 -14.4697 -14.3350 -14.3347 -14.1977
   -11.6583 -11.6292  -8.6958  -7.8750  -7.7080  -7.6451  -7.1640  -7.1253
    -7.0645  -7.0577  -7.0391  -7.0195  -4.6582  -4.6217  -4.4664  -1.4414
    -0.1565  -0.1435   1.4148   1.6353   1.8940   3.1454   3.1955   3.5565
     3.6953   4.2693   4.4292   5.4114   5.4859   6.3081   7.0630   8.1241
     8.2332

          k = 0.2857-0.1429 0.4286 ( 11170 PWs)   bands (ev):

   -41.0992 -29.7760 -23.7682 -23.7638 -23.7285 -20.1820 -19.4060 -19.4056
   -17.8567 -17.8528 -17.8095 -14.4738 -14.4693 -14.3354 -14.3346 -14.1975
   -11.6504 -11.6174  -8.6853  -7.8668  -7.7000  -7.6520  -7.1758  -7.1007
    -7.0798  -7.0484  -7.0435  -7.0237  -4.7659  -4.6305  -4.4667  -1.4487
    -0.1713  -0.1487   1.4393   1.7936   1.8877   3.1589   3.2358   3.6019
     3.6849   4.2991   4.4537   5.3659   5.4447   6.2768   7.3013   8.1845
     8.2329

          k =-0.2857 0.1429 0.4286 ( 11170 PWs)   bands (ev):

   -41.0992 -29.7760 -23.7689 -23.7632 -23.7284 -20.1820 -19.4061 -19.4056
   -17.8566 -17.8529 -17.8096 -14.4736 -14.4692 -14.3354 -14.3346 -14.1977
   -11.6530 -11.6155  -8.6816  -7.8668  -7.7054  -7.6506  -7.1726  -7.1075
    -7.0750  -7.0542  -7.0416  -7.0202  -4.7665  -4.6290  -4.4677  -1.4508
    -0.1709  -0.1486   1.4402   1.7922   1.9068   3.1504   3.2361   3.5756
     3.7057   4.2873   4.4522   5.3634   5.4517   6.2767   7.2661   8.1539
     8.2203

          k =-0.4286 0.2857 0.1429 ( 11170 PWs)   bands (ev):

   -41.0992 -29.7760 -23.7686 -23.7624 -23.7294 -20.1824 -19.4061 -19.4055
   -17.8561 -17.8531 -17.8091 -14.4730 -14.4717 -14.3351 -14.3346 -14.1971
   -11.6531 -11.6110  -8.7085  -7.8320  -7.7082  -7.6526  -7.1524  -7.1191
    -7.0731  -7.0649  -7.0505  -7.0157  -4.7626  -4.6326  -4.4696  -1.4503
    -0.1707  -0.1500   1.4435   1.7741   1.9072   3.1687   3.2486   3.5456
     3.7174   4.3040   4.4555   5.3370   5.4472   6.2787   7.2202   8.1618
     8.2468

          k = 0.4286-0.1429 0.4286 ( 11172 PWs)   bands (ev):

   -41.0992 -29.7760 -23.7672 -23.7653 -23.7279 -20.1825 -19.4066 -19.4061
   -17.8573 -17.8534 -17.8102 -14.4714 -14.4701 -14.3355 -14.3349 -14.1980
   -11.6482 -11.6019  -8.6623  -7.8718  -7.6883  -7.6579  -7.1767  -7.0932
    -7.0916  -7.0540  -7.0469  -7.0182  -4.7613  -4.7442  -4.4677  -1.4651
    -0.1885  -0.1551   1.4985   1.9249   1.9353   3.1626   3.2686   3.5868
     3.7311   4.2736   4.4795   5.2905   5.4270   6.2442   7.4671   8.1898
     8.4253

          k =-0.4286 0.1429 0.4286 ( 11172 PWs)   bands (ev):

   -41.0992 -29.7760 -23.7677 -23.7643 -23.7283 -20.1826 -19.4066 -19.4061
   -17.8571 -17.8535 -17.8100 -14.4720 -14.4702 -14.3354 -14.3349 -14.1978
   -11.6490 -11.5994  -8.6737  -7.8536  -7.6944  -7.6574  -7.1681  -7.1056
    -7.0819  -7.0612  -7.0512  -7.0144  -4.7609  -4.7436  -4.4693  -1.4658
    -0.1884  -0.1555   1.4986   1.9128   1.9496   3.1633   3.2773   3.5648
     3.7429   4.2757   4.4801   5.2813   5.4252   6.2449   7.4213   8.1638
     8.3413

          k = 0.2857-0.2857 0.2857 ( 11179 PWs)   bands (ev):

   -41.0992 -29.7760 -23.7685 -23.7633 -23.7287 -20.1817 -19.4060 -19.4059
   -17.8555 -17.8546 -17.8102 -14.4729 -14.4676 -14.3353 -14.3350 -14.1985
   -11.6379 -11.6292  -8.6567  -7.8987  -7.6970  -7.6421  -7.1809  -7.1143
    -7.0692  -7.0592  -7.0431  -7.0138  -4.6574  -4.6456  -4.5851  -1.4631
    -0.1669  -0.1649   1.6354   1.6523   1.9381   3.1825   3.1918   3.6190
     3.6978   4.2671   4.4537   5.3852   5.4237   6.2656   7.2489   8.1790
     8.2393

          k = 0.2857-0.2857 0.4286 ( 11188 PWs)   bands (ev):

   -41.0992 -29.7760 -23.7682 -23.7642 -23.7281 -20.1819 -19.4066 -19.4064
   -17.8569 -17.8546 -17.8110 -14.4711 -14.4671 -14.3356 -14.3351 -14.1991
   -11.6331 -11.6176  -8.6217  -7.9215  -7.6808  -7.6453  -7.1914  -7.1071
    -7.0813  -7.0521  -7.0462  -7.0117  -4.7579  -4.6444  -4.5947  -1.4804
    -0.1845  -0.1719   1.6446   1.8312   1.9722   3.1814   3.2313   3.6608
     3.7023   4.2543   4.4787   5.3575   5.3811   6.2311   7.4552   8.2491
     8.2688

          k =-0.4286 0.2857 0.2857 ( 11188 PWs)   bands (ev):

   -41.0992 -29.7760 -23.7678 -23.7632 -23.7294 -20.1825 -19.4067 -19.4063
   -17.8562 -17.8550 -17.8105 -14.4718 -14.4689 -14.3353 -14.3351 -14.1984
   -11.6352 -11.6099  -8.6607  -7.8731  -7.6857  -7.6458  -7.1758  -7.1098
    -7.0780  -7.0725  -7.0521  -7.0077  -4.7510  -4.6487  -4.5995  -1.4796
    -0.1832  -0.1746   1.6542   1.8061   1.9690   3.2080   3.2416   3.6103
     3.7327   4.2740   4.4828   5.3115   5.3914   6.2335   7.3850   8.2032
     8.2455

          k = 0.4286-0.2857 0.4286 ( 11194 PWs)   bands (ev):

   -41.0992 -29.7759 -23.7670 -23.7651 -23.7283 -20.1820 -19.4072 -19.4070
   -17.8574 -17.8555 -17.8120 -14.4685 -14.4670 -14.3358 -14.3354 -14.2000
   -11.6267 -11.6078  -8.5828  -7.9459  -7.6624  -7.6475  -7.1994  -7.1085
    -7.0945  -7.0517  -7.0480  -7.0059  -4.7615  -4.7308  -4.6077  -1.5037
    -0.2005  -0.1848   1.7362   1.9303   2.0207   3.2018   3.2530   3.6834
     3.7342   4.2279   4.5071   5.3044   5.3564   6.1950   7.6291   8.2690
     8.4061

          k =-0.4286 0.2857 0.4286 ( 11194 PWs)   bands (ev):

   -41.0992 -29.7759 -23.7670 -23.7646 -23.7289 -20.1823 -19.4072 -19.4069
   -17.8572 -17.8556 -17.8117 -14.4693 -14.4673 -14.3356 -14.3354 -14.1997
   -11.6274 -11.6046  -8.6029  -7.9212  -7.6659  -7.6466  -7.1937  -7.1091
    -7.0943  -7.0606  -7.0489  -7.0043  -4.7574  -4.7328  -4.6107  -1.5033
    -0.2003  -0.1857   1.7378   1.9230   2.0178   3.2098   3.2614   3.6605
     3.7489   4.2356   4.5089   5.2893   5.3569   6.1960   7.5879   8.2105
     8.3636

          k = 0.4286-0.4286 0.4286 ( 11221 PWs)   bands (ev):

   -41.0992 -29.7759 -23.7660 -23.7650 -23.7294 -20.1820 -19.4076 -19.4076
   -17.8574 -17.8572 -17.8131 -14.4666 -14.4655 -14.3359 -14.3358 -14.2012
   -11.6102 -11.6086  -8.5350  -7.9750  -7.6491  -7.6422  -7.2094  -7.1173
    -7.1107  -7.0513  -7.0483  -6.9979  -4.7583  -4.7559  -4.6832  -1.5332
    -0.2095  -0.2088   1.9264   1.9325   2.0741   3.2501   3.2524   3.7356
     3.7509   4.1996   4.5378   5.2911   5.2990   6.1564   7.7645   8.3413
     8.4178

     highest occupied level (ev):     8.5919

!    total energy              =   -1448.08001438 Ry
     total all-electron energy =     -1448.080014 Ry
     estimated scf accuracy    <          3.7E-11 Ry

     The total energy is the sum of the following terms:
     one-electron contribution =    -458.35045381 Ry
     hartree contribution      =     298.24943882 Ry
     xc contribution           =    -121.68833457 Ry
     ewald contribution        =    -342.76060911 Ry
     one-center paw contrib.   =    -823.53005571 Ry

     convergence has been achieved in  18 iterations

     Forces acting on atoms (cartesian axes, Ry/au):

     atom    1 type  1   force =    -0.02599842   -0.02599842   -0.02599842
     atom    2 type  1   force =    -0.03518372   -0.03518372    0.02871318
     atom    3 type  1   force =    -0.03518372    0.02871318   -0.03518372
     atom    4 type  1   force =     0.02871318   -0.03518372   -0.03518372
     atom    5 type  2   force =    -0.05123073   -0.05123073   -0.05123073
     atom    6 type  3   force =    -0.01483342   -0.01483342   -0.01483342
     atom    7 type  4   force =     0.67734164    0.01777001    0.01777001
     atom    8 type  4   force =    -0.62974416    0.02528967    0.02528967
     atom    9 type  4   force =     0.01777001    0.67734164    0.01777001
     atom   10 type  4   force =     0.02528967   -0.62974416    0.02528967
     atom   11 type  4   force =     0.01777001    0.01777001    0.67734164
     atom   12 type  4   force =     0.02528967    0.02528967   -0.62974416

     Total force =     1.610063     Total SCF correction =     0.000022


     Computing stress (Cartesian axis) and pressure

          total   stress  (Ry/bohr**3)                   (kbar)     P=      493.56
   0.00335513  -0.00008819  -0.00008819          493.56      -12.97      -12.97
  -0.00008819   0.00335513  -0.00008819          -12.97      493.56      -12.97
  -0.00008819  -0.00008819   0.00335513          -12.97      -12.97      493.56


     Writing all to output data dir ./K4ZrSnO6.save/

     init_run     :      6.24s CPU      6.40s WALL (       1 calls)
     electrons    :    161.18s CPU    164.38s WALL (       1 calls)
     forces       :      0.95s CPU      0.97s WALL (       1 calls)
     stress       :      2.88s CPU      2.90s WALL (       1 calls)

     Called by init_run:
     wfcinit      :      4.80s CPU      4.91s WALL (       1 calls)
     potinit      :      0.62s CPU      0.64s WALL (       1 calls)
     hinit0       :      0.73s CPU      0.74s WALL (       1 calls)

     Called by electrons:
     c_bands      :    139.10s CPU    141.77s WALL (      18 calls)
     sum_band     :     12.14s CPU     12.49s WALL (      18 calls)
     v_of_rho     :      0.23s CPU      0.24s WALL (      19 calls)
     newd         :      0.67s CPU      0.69s WALL (      19 calls)
     PAW_pot      :      9.51s CPU      9.61s WALL (      19 calls)
     mix_rho      :      0.06s CPU      0.06s WALL (      18 calls)

     Called by c_bands:
     init_us_2    :      1.34s CPU      1.39s WALL (    1716 calls)
     init_us_2:cp :      1.33s CPU      1.38s WALL (    1716 calls)
     cegterg      :    134.61s CPU    137.20s WALL (     792 calls)

     Called by *egterg:
     cdiaghg      :     52.93s CPU     53.64s WALL (    5361 calls)
     h_psi        :     59.14s CPU     60.65s WALL (    5405 calls)
     s_psi        :      5.95s CPU      6.01s WALL (    5405 calls)
     g_psi        :      0.91s CPU      0.92s WALL (    4569 calls)

     Called by h_psi:
     h_psi:calbec :      7.00s CPU      7.35s WALL (    5405 calls)
     vloc_psi     :     45.70s CPU     46.78s WALL (    5405 calls)
     add_vuspsi   :      6.11s CPU      6.20s WALL (    5405 calls)

     General routines
     calbec       :      9.55s CPU     10.05s WALL (    6417 calls)
     fft          :      0.35s CPU      0.36s WALL (     234 calls)
     ffts         :      0.01s CPU      0.01s WALL (      18 calls)
     fftw         :     47.48s CPU     48.58s WALL (  262064 calls)

     Parallel routines

     PWSCF        :   2m52.84s CPU   3m 0.08s WALL


   This run was terminated on:  20:50:19  29Nov2025            

=------------------------------------------------------------------------------=
   JOB DONE.
=------------------------------------------------------------------------------=
