
     Program PWSCF v.7.1 starts on 29Nov2025 at 20:25:38 

     This program is part of the open-source Quantum ESPRESSO suite
     for quantum simulation of materials; please cite
         "P. Giannozzi et al., J. Phys.:Condens. Matter 21 395502 (2009);
         "P. Giannozzi et al., J. Phys.:Condens. Matter 29 465901 (2017);
         "P. Giannozzi et al., J. Chem. Phys. 152 154105 (2020);
          URL http://www.quantum-espresso.org", 
     in publications or presentations arising from this work. More details at
     http://www.quantum-espresso.org/quote

     Parallel version (MPI & OpenMP), running on      16 processor cores
     Number of MPI processes:                16
     Threads/MPI process:                     1

     MPI processes distributed on     1 nodes
     127202 MiB available memory on the printing compute node when the environment starts

     Waiting for input...
     Reading input from standard input

     Current dimensions of program PWSCF are:
     Max number of different atomic species (ntypx) = 10
     Max number of k-points (npk) =  40000
     Max angular momentum in pseudopotentials (lmaxx) =  4
     Message from routine read_pp_mesh:
     mismatch in mesh size, discarding the one in header
     Message from routine read_pp_mesh:
     mismatch in mesh size, discarding the one in header
     Message from routine read_pp_mesh:
     mismatch in mesh size, discarding the one in header
     Message from routine read_pp_mesh:
     mismatch in mesh size, discarding the one in header
     Message from routine setup:
     using ibrav=0 with symmetry is DISCOURAGED, use correct ibrav instead

     R & G space division:  proc/nbgrp/npool/nimage =      16
     Subspace diagonalization in iterative solution of the eigenvalue problem:
     a serial algorithm will be used


     Parallelization info
     --------------------
     sticks:   dense  smooth     PW     G-vecs:    dense   smooth      PW
     Min         151     151     37                 5573     5573     691
     Max         152     152     38                 5577     5577     696
     Sum        2417    2417    593                89199    89199   11075

     Using Slab Decomposition



     bravais-lattice index     =            0
     lattice parameter (alat)  =      11.2511  a.u.
     unit-cell volume          =    1424.2554 (a.u.)^3
     number of atoms/cell      =           12
     number of atomic types    =            4
     number of electrons       =        98.00
     number of Kohn-Sham states=           49
     kinetic-energy cutoff     =      60.0000  Ry
     charge density cutoff     =     240.0000  Ry
     scf convergence threshold =      1.0E-10
     mixing beta               =       0.7000
     number of iterations used =            8  plain     mixing
     Exchange-correlation= SLA PW PBX PBC
                           (   1   4   3   4   0   0   0)

     celldm(1)=  11.251125  celldm(2)=   0.000000  celldm(3)=   0.000000
     celldm(4)=   0.000000  celldm(5)=   0.000000  celldm(6)=   0.000000

     crystal axes: (cart. coord. in units of alat)
               a(1) = (   1.000000   0.000000   0.000000 )  
               a(2) = (   0.000000   1.000000   0.000000 )  
               a(3) = (   0.000000   0.000000   1.000000 )  

     reciprocal axes: (cart. coord. in units 2 pi/alat)
               b(1) = (  1.000000  0.000000  0.000000 )  
               b(2) = (  0.000000  1.000000  0.000000 )  
               b(3) = (  0.000000  0.000000  1.000000 )  


     PseudoPot. # 1 for K  read from file:
     ./K.upf
     MD5 check sum: 9356cfae17991a8ac93a0af773ad5d28
     Pseudo is Projector augmented-wave + core cor, Zval =  9.0
     Generated using ATOMPAW code
     Shape of augmentation charge: SINC**2
     Using radial grid of 2342 points,  5 beta functions with: 
                l(1) =   0
                l(2) =   0
                l(3) =   1
                l(4) =   1
                l(5) =   2
     Q(r) pseudized with 0 coefficients 


     PseudoPot. # 2 for Zr read from file:
     ./Zr.upf
     MD5 check sum: 10be9e9715c592225794718718b87d8f
     Pseudo is Projector augmented-wave + core cor, Zval = 12.0
     Generated using ATOMPAW code
     Shape of augmentation charge: BESSEL
     Using radial grid of 2342 points,  6 beta functions with: 
                l(1) =   0
                l(2) =   0
                l(3) =   1
                l(4) =   1
                l(5) =   2
                l(6) =   2
     Q(r) pseudized with 0 coefficients 


     PseudoPot. # 3 for Sn read from file:
     ./Sn.upf
     MD5 check sum: f8d5c2bd65c7f969f3af92fc3a9f2821
     Pseudo is Projector augmented-wave + core cor, Zval = 14.0
     Generated using ATOMPAW code
     Shape of augmentation charge: BESSEL
     Using radial grid of 2342 points,  6 beta functions with: 
                l(1) =   0
                l(2) =   0
                l(3) =   1
                l(4) =   1
                l(5) =   2
                l(6) =   2
     Q(r) pseudized with 0 coefficients 


     PseudoPot. # 4 for O  read from file:
     ./O.upf
     MD5 check sum: 45fbb1c0d1f8837f1e386a2947d3aa26
     Pseudo is Projector augmented-wave + core cor, Zval =  6.0
     Generated using ATOMPAW code
     Shape of augmentation charge: SINC**2
     Using radial grid of 2342 points,  4 beta functions with: 
                l(1) =   0
                l(2) =   0
                l(3) =   1
                l(4) =   1
     Q(r) pseudized with 0 coefficients 


     atomic species   valence    mass     pseudopotential
        K              9.00    39.09800     K ( 1.00)
        Zr            12.00    91.22400     Zr( 1.00)
        Sn            14.00   118.71000     Sn( 1.00)
        O              6.00    15.99900     O ( 1.00)

      6 Sym. Ops. (no inversion) found



   Cartesian axes

     site n.     atom                  positions (alat units)
         1           K   tau(   1) = (   0.0000000   0.0000000   0.0000000  )
         2           K   tau(   2) = (   0.5000000   0.5000000   0.0000000  )
         3           K   tau(   3) = (   0.5000000   0.0000000   0.5000000  )
         4           K   tau(   4) = (   0.0000000   0.5000000   0.5000000  )
         5           Zr  tau(   5) = (   0.2500000   0.2500000   0.2500000  )
         6           Sn  tau(   6) = (   0.7500000   0.7500000   0.7500000  )
         7           O   tau(   7) = (   0.2500000   0.0000000   0.0000000  )
         8           O   tau(   8) = (   0.7500000   0.0000000   0.0000000  )
         9           O   tau(   9) = (   0.0000000   0.2500000   0.0000000  )
        10           O   tau(  10) = (   0.0000000   0.7500000   0.0000000  )
        11           O   tau(  11) = (   0.0000000   0.0000000   0.2500000  )
        12           O   tau(  12) = (   0.0000000   0.0000000   0.7500000  )

     number of k points=     1
                       cart. coord. in units 2pi/alat
        k(    1) = (   0.0000000   0.0000000   0.0000000), wk =   2.0000000

     Dense  grid:    89199 G-vectors     FFT dimensions: (  60,  60,  60)

     Estimated max dynamical RAM per process >      28.02 MB

     Estimated total dynamical RAM >     448.33 MB

     Check: negative core charge=   -0.000002

     Initial potential from superposition of free atoms

     starting charge      97.9154, renormalised to      98.0000
     Starting wfcs are  136 randomized atomic wfcs
     Checking if some PAW data can be deallocated... 

     total cpu time spent up to now is        3.0 secs

     per-process dynamical memory:    60.2 Mb

     Self-consistent Calculation

     iteration #  1     ecut=    60.00 Ry     beta= 0.70
     Davidson diagonalization with overlap
     ethr =  1.00E-02,  avg # of iterations =  2.0

     total cpu time spent up to now is        3.8 secs

     total energy              =   -1446.49475846 Ry
     estimated scf accuracy    <       3.17591366 Ry

     iteration #  2     ecut=    60.00 Ry     beta= 0.70
     Davidson diagonalization with overlap
     ethr =  3.24E-03,  avg # of iterations =  7.0

     total cpu time spent up to now is        4.6 secs

     total energy              =   -1443.89990880 Ry
     estimated scf accuracy    <      21.43118062 Ry

     iteration #  3     ecut=    60.00 Ry     beta= 0.70
     Davidson diagonalization with overlap
     ethr =  3.24E-03,  avg # of iterations =  6.0

     total cpu time spent up to now is        5.4 secs

     total energy              =   -1447.34133116 Ry
     estimated scf accuracy    <       2.74093085 Ry

     iteration #  4     ecut=    60.00 Ry     beta= 0.70
     Davidson diagonalization with overlap
     ethr =  2.80E-03,  avg # of iterations =  8.0

     total cpu time spent up to now is        6.2 secs

     total energy              =   -1448.20411401 Ry
     estimated scf accuracy    <       1.11501715 Ry

     iteration #  5     ecut=    60.00 Ry     beta= 0.70
     Davidson diagonalization with overlap
     ethr =  1.14E-03,  avg # of iterations =  3.0

     total cpu time spent up to now is        7.0 secs

     total energy              =   -1448.18302675 Ry
     estimated scf accuracy    <       0.46228047 Ry

     iteration #  6     ecut=    60.00 Ry     beta= 0.70
     Davidson diagonalization with overlap
     ethr =  4.72E-04,  avg # of iterations =  2.0

     total cpu time spent up to now is        7.7 secs

     total energy              =   -1448.14690874 Ry
     estimated scf accuracy    <       0.19857939 Ry

     iteration #  7     ecut=    60.00 Ry     beta= 0.70
     Davidson diagonalization with overlap
     ethr =  2.03E-04,  avg # of iterations =  8.0

     total cpu time spent up to now is        8.5 secs

     total energy              =   -1448.16393665 Ry
     estimated scf accuracy    <       0.29670881 Ry

     iteration #  8     ecut=    60.00 Ry     beta= 0.70
     Davidson diagonalization with overlap
     ethr =  2.03E-04,  avg # of iterations =  1.0

     total cpu time spent up to now is        9.2 secs

     total energy              =   -1448.11307423 Ry
     estimated scf accuracy    <       0.22441623 Ry

     iteration #  9     ecut=    60.00 Ry     beta= 0.70
     Davidson diagonalization with overlap
     ethr =  2.03E-04,  avg # of iterations =  6.0

     total cpu time spent up to now is       10.0 secs

     total energy              =   -1448.18132670 Ry
     estimated scf accuracy    <       0.17803551 Ry

     iteration # 10     ecut=    60.00 Ry     beta= 0.70
     Davidson diagonalization with overlap
     ethr =  1.82E-04,  avg # of iterations =  1.0

     total cpu time spent up to now is       10.7 secs

     total energy              =   -1448.16227033 Ry
     estimated scf accuracy    <       0.11697297 Ry

     iteration # 11     ecut=    60.00 Ry     beta= 0.70
     Davidson diagonalization with overlap
     ethr =  1.19E-04,  avg # of iterations =  4.0

     total cpu time spent up to now is       11.5 secs

     total energy              =   -1448.17213042 Ry
     estimated scf accuracy    <       0.01521488 Ry

     iteration # 12     ecut=    60.00 Ry     beta= 0.70
     Davidson diagonalization with overlap
     ethr =  1.55E-05,  avg # of iterations =  3.0

     total cpu time spent up to now is       12.2 secs

     total energy              =   -1448.16969835 Ry
     estimated scf accuracy    <       0.01671558 Ry

     iteration # 13     ecut=    60.00 Ry     beta= 0.70
     Davidson diagonalization with overlap
     ethr =  1.55E-05,  avg # of iterations =  8.0

     total cpu time spent up to now is       13.0 secs

     total energy              =   -1448.17140891 Ry
     estimated scf accuracy    <       0.00081777 Ry

     iteration # 14     ecut=    60.00 Ry     beta= 0.70
     Davidson diagonalization with overlap
     ethr =  8.34E-07,  avg # of iterations =  4.0

     total cpu time spent up to now is       13.7 secs

     total energy              =   -1448.17140491 Ry
     estimated scf accuracy    <       0.00083791 Ry

     iteration # 15     ecut=    60.00 Ry     beta= 0.70
     Davidson diagonalization with overlap
     ethr =  8.34E-07,  avg # of iterations =  9.0

     total cpu time spent up to now is       14.5 secs

     total energy              =   -1448.17145146 Ry
     estimated scf accuracy    <       0.00008438 Ry

     iteration # 16     ecut=    60.00 Ry     beta= 0.70
     Davidson diagonalization with overlap
     ethr =  8.61E-08,  avg # of iterations =  7.0

     total cpu time spent up to now is       15.4 secs

     total energy              =   -1448.17146171 Ry
     estimated scf accuracy    <       0.00058291 Ry

     iteration # 17     ecut=    60.00 Ry     beta= 0.70
     Davidson diagonalization with overlap
     ethr =  8.61E-08,  avg # of iterations =  9.0

     total cpu time spent up to now is       16.2 secs

     total energy              =   -1448.17145024 Ry
     estimated scf accuracy    <       0.00016922 Ry

     iteration # 18     ecut=    60.00 Ry     beta= 0.70
     Davidson diagonalization with overlap
     ethr =  8.61E-08,  avg # of iterations =  8.0

     total cpu time spent up to now is       16.9 secs

     total energy              =   -1448.17145765 Ry
     estimated scf accuracy    <       0.00001142 Ry

     iteration # 19     ecut=    60.00 Ry     beta= 0.70
     Davidson diagonalization with overlap
     ethr =  1.17E-08,  avg # of iterations =  4.0

     total cpu time spent up to now is       17.7 secs

     total energy              =   -1448.17145876 Ry
     estimated scf accuracy    <       0.00000415 Ry

     iteration # 20     ecut=    60.00 Ry     beta= 0.70
     Davidson diagonalization with overlap
     ethr =  4.23E-09,  avg # of iterations =  4.0

     total cpu time spent up to now is       18.5 secs

     total energy              =   -1448.17145939 Ry
     estimated scf accuracy    <       0.00000179 Ry

     iteration # 21     ecut=    60.00 Ry     beta= 0.70
     Davidson diagonalization with overlap
     ethr =  1.83E-09,  avg # of iterations =  7.0

     total cpu time spent up to now is       19.3 secs

     total energy              =   -1448.17145958 Ry
     estimated scf accuracy    <       0.00000017 Ry

     iteration # 22     ecut=    60.00 Ry     beta= 0.70
     Davidson diagonalization with overlap
     ethr =  1.72E-10,  avg # of iterations =  4.0

     total cpu time spent up to now is       20.0 secs

     total energy              =   -1448.17145959 Ry
     estimated scf accuracy    <       0.00000008 Ry

     iteration # 23     ecut=    60.00 Ry     beta= 0.70
     Davidson diagonalization with overlap
     ethr =  8.63E-11,  avg # of iterations =  7.0

     total cpu time spent up to now is       20.8 secs

     total energy              =   -1448.17145959 Ry
     estimated scf accuracy    <          7.5E-09 Ry

     iteration # 24     ecut=    60.00 Ry     beta= 0.70
     Davidson diagonalization with overlap
     ethr =  7.64E-12,  avg # of iterations =  7.0

     total cpu time spent up to now is       21.6 secs

     total energy              =   -1448.17145959 Ry
     estimated scf accuracy    <          1.0E-10 Ry

     iteration # 25     ecut=    60.00 Ry     beta= 0.70
     Davidson diagonalization with overlap
     ethr =  1.02E-13,  avg # of iterations =  7.0

     total cpu time spent up to now is       22.5 secs

     End of self-consistent calculation

          k = 0.0000 0.0000 0.0000 ( 11075 PWs)   bands (ev):

   -41.0156 -29.8001 -23.8577 -23.8577 -23.8404 -20.1550 -19.3257 -19.3257
   -17.8569 -17.8569 -17.8237 -15.0267 -15.0267 -14.8809 -14.8809 -14.7014
   -11.7239 -11.7239  -8.7920  -8.1212  -7.7739  -7.7739  -7.2289  -7.2289
    -7.1637  -7.1190  -7.1190  -7.0778  -4.4948  -4.4948  -4.4051  -1.4784
    -0.1255  -0.1255   1.0710   1.0710   1.6383   3.0824   3.0824   3.6134
     3.6134   3.8510   4.3794   5.5875   5.5875   6.4213   6.6146   8.1432
     8.6193

     highest occupied level (ev):     8.6193

!    total energy              =   -1448.17145959 Ry
     total all-electron energy =     -1448.171460 Ry
     estimated scf accuracy    <          8.2E-11 Ry

     The total energy is the sum of the following terms:
     one-electron contribution =    -457.77225768 Ry
     hartree contribution      =     297.51200589 Ry
     xc contribution           =    -121.65308630 Ry
     ewald contribution        =    -342.76060911 Ry
     one-center paw contrib.   =    -823.49751239 Ry

     convergence has been achieved in  25 iterations

     Forces acting on atoms (cartesian axes, Ry/au):

     atom    1 type  1   force =    -0.02649779   -0.02649779   -0.02649779
     atom    2 type  1   force =    -0.04482513   -0.04482513    0.02252609
     atom    3 type  1   force =    -0.04482513    0.02252609   -0.04482513
     atom    4 type  1   force =     0.02252609   -0.04482513   -0.04482513
     atom    5 type  2   force =    -0.01587778   -0.01587778   -0.01587778
     atom    6 type  3   force =     0.02795313    0.02795313    0.02795313
     atom    7 type  4   force =     0.69694110    0.00051230    0.00051230
     atom    8 type  4   force =    -0.68925711    0.03641901    0.03641901
     atom    9 type  4   force =     0.00051230    0.69694110    0.00051230
     atom   10 type  4   force =     0.03641901   -0.68925711    0.03641901
     atom   11 type  4   force =     0.00051230    0.00051230    0.69694110
     atom   12 type  4   force =     0.03641901    0.03641901   -0.68925711

     Total force =     1.705623     Total SCF correction =     0.000039


     Computing stress (Cartesian axis) and pressure

          total   stress  (Ry/bohr**3)                   (kbar)     P=      480.39
   0.00326560  -0.00014556  -0.00014556          480.39      -21.41      -21.41
  -0.00014556   0.00326560  -0.00014556          -21.41      480.39      -21.41
  -0.00014556  -0.00014556   0.00326560          -21.41      -21.41      480.39


     Writing all to output data dir ./K4ZrSnO6.save/

     init_run     :      1.53s CPU      1.63s WALL (       1 calls)
     electrons    :     19.20s CPU     19.52s WALL (       1 calls)
     forces       :      0.33s CPU      0.33s WALL (       1 calls)
     stress       :      0.89s CPU      0.89s WALL (       1 calls)

     Called by init_run:
     wfcinit      :      0.11s CPU      0.13s WALL (       1 calls)
     potinit      :      0.61s CPU      0.63s WALL (       1 calls)
     hinit0       :      0.73s CPU      0.76s WALL (       1 calls)

     Called by electrons:
     c_bands      :      3.77s CPU      3.86s WALL (      25 calls)
     sum_band     :      1.68s CPU      1.71s WALL (      25 calls)
     v_of_rho     :      0.30s CPU      0.32s WALL (      26 calls)
     newd         :      0.92s CPU      0.95s WALL (      26 calls)
     PAW_pot      :     12.95s CPU     13.10s WALL (      26 calls)
     mix_rho      :      0.08s CPU      0.09s WALL (      25 calls)

     Called by c_bands:
     init_us_2    :      0.04s CPU      0.04s WALL (      51 calls)
     init_us_2:cp :      0.04s CPU      0.04s WALL (      51 calls)
     cegterg      :      3.64s CPU      3.72s WALL (      25 calls)

     Called by *egterg:
     cdiaghg      :      1.38s CPU      1.41s WALL (     161 calls)
     h_psi        :      1.65s CPU      1.70s WALL (     162 calls)
     s_psi        :      0.17s CPU      0.17s WALL (     162 calls)
     g_psi        :      0.03s CPU      0.03s WALL (     136 calls)

     Called by h_psi:
     h_psi:calbec :      0.20s CPU      0.21s WALL (     162 calls)
     vloc_psi     :      1.27s CPU      1.31s WALL (     162 calls)
     add_vuspsi   :      0.17s CPU      0.17s WALL (     162 calls)

     General routines
     calbec       :      0.27s CPU      0.28s WALL (     192 calls)
     fft          :      0.36s CPU      0.41s WALL (     311 calls)
     ffts         :      0.01s CPU      0.01s WALL (      25 calls)
     fftw         :      1.33s CPU      1.37s WALL (    7613 calls)

     Parallel routines

     PWSCF        :     23.01s CPU     24.06s WALL


   This run was terminated on:  20:26: 2  29Nov2025            

=------------------------------------------------------------------------------=
   JOB DONE.
=------------------------------------------------------------------------------=
