
     Program PWSCF v.7.1 starts on 29Nov2025 at 20:34:19 

     This program is part of the open-source Quantum ESPRESSO suite
     for quantum simulation of materials; please cite
         "P. Giannozzi et al., J. Phys.:Condens. Matter 21 395502 (2009);
         "P. Giannozzi et al., J. Phys.:Condens. Matter 29 465901 (2017);
         "P. Giannozzi et al., J. Chem. Phys. 152 154105 (2020);
          URL http://www.quantum-espresso.org", 
     in publications or presentations arising from this work. More details at
     http://www.quantum-espresso.org/quote

     Parallel version (MPI & OpenMP), running on      16 processor cores
     Number of MPI processes:                16
     Threads/MPI process:                     1

     MPI processes distributed on     1 nodes
     57612 MiB available memory on the printing compute node when the environment starts

     Waiting for input...
     Reading input from standard input

     Current dimensions of program PWSCF are:
     Max number of different atomic species (ntypx) = 10
     Max number of k-points (npk) =  40000
     Max angular momentum in pseudopotentials (lmaxx) =  4
     Message from routine read_pp_mesh:
     mismatch in mesh size, discarding the one in header
     Message from routine read_pp_mesh:
     mismatch in mesh size, discarding the one in header
     Message from routine read_pp_mesh:
     mismatch in mesh size, discarding the one in header
     Message from routine read_pp_mesh:
     mismatch in mesh size, discarding the one in header
     Message from routine setup:
     using ibrav=0 with symmetry is DISCOURAGED, use correct ibrav instead

     R & G space division:  proc/nbgrp/npool/nimage =      16
     Subspace diagonalization in iterative solution of the eigenvalue problem:
     a serial algorithm will be used


     Parallelization info
     --------------------
     sticks:   dense  smooth     PW     G-vecs:    dense   smooth      PW
     Min         151     151     41                 5573     5573     784
     Max         152     152     43                 5577     5577     786
     Sum        2417    2417    665                89199    89199   12557

     Using Slab Decomposition



     bravais-lattice index     =            0
     lattice parameter (alat)  =      11.2511  a.u.
     unit-cell volume          =    1424.2554 (a.u.)^3
     number of atoms/cell      =           12
     number of atomic types    =            4
     number of electrons       =        98.00
     number of Kohn-Sham states=           49
     kinetic-energy cutoff     =      60.0000  Ry
     charge density cutoff     =     240.0000  Ry
     scf convergence threshold =      1.0E-10
     mixing beta               =       0.7000
     number of iterations used =            8  plain     mixing
     Exchange-correlation= SLA PW PBX PBC
                           (   1   4   3   4   0   0   0)

     celldm(1)=  11.251125  celldm(2)=   0.000000  celldm(3)=   0.000000
     celldm(4)=   0.000000  celldm(5)=   0.000000  celldm(6)=   0.000000

     crystal axes: (cart. coord. in units of alat)
               a(1) = (   1.000000   0.000000   0.000000 )  
               a(2) = (   0.000000   1.000000   0.000000 )  
               a(3) = (   0.000000   0.000000   1.000000 )  

     reciprocal axes: (cart. coord. in units 2 pi/alat)
               b(1) = (  1.000000  0.000000  0.000000 )  
               b(2) = (  0.000000  1.000000  0.000000 )  
               b(3) = (  0.000000  0.000000  1.000000 )  


     PseudoPot. # 1 for K  read from file:
     ./K.upf
     MD5 check sum: 9356cfae17991a8ac93a0af773ad5d28
     Pseudo is Projector augmented-wave + core cor, Zval =  9.0
     Generated using ATOMPAW code
     Shape of augmentation charge: SINC**2
     Using radial grid of 2342 points,  5 beta functions with: 
                l(1) =   0
                l(2) =   0
                l(3) =   1
                l(4) =   1
                l(5) =   2
     Q(r) pseudized with 0 coefficients 


     PseudoPot. # 2 for Zr read from file:
     ./Zr.upf
     MD5 check sum: 10be9e9715c592225794718718b87d8f
     Pseudo is Projector augmented-wave + core cor, Zval = 12.0
     Generated using ATOMPAW code
     Shape of augmentation charge: BESSEL
     Using radial grid of 2342 points,  6 beta functions with: 
                l(1) =   0
                l(2) =   0
                l(3) =   1
                l(4) =   1
                l(5) =   2
                l(6) =   2
     Q(r) pseudized with 0 coefficients 


     PseudoPot. # 3 for Sn read from file:
     ./Sn.upf
     MD5 check sum: f8d5c2bd65c7f969f3af92fc3a9f2821
     Pseudo is Projector augmented-wave + core cor, Zval = 14.0
     Generated using ATOMPAW code
     Shape of augmentation charge: BESSEL
     Using radial grid of 2342 points,  6 beta functions with: 
                l(1) =   0
                l(2) =   0
                l(3) =   1
                l(4) =   1
                l(5) =   2
                l(6) =   2
     Q(r) pseudized with 0 coefficients 


     PseudoPot. # 4 for O  read from file:
     ./O.upf
     MD5 check sum: 45fbb1c0d1f8837f1e386a2947d3aa26
     Pseudo is Projector augmented-wave + core cor, Zval =  6.0
     Generated using ATOMPAW code
     Shape of augmentation charge: SINC**2
     Using radial grid of 2342 points,  4 beta functions with: 
                l(1) =   0
                l(2) =   0
                l(3) =   1
                l(4) =   1
     Q(r) pseudized with 0 coefficients 


     atomic species   valence    mass     pseudopotential
        K              9.00    39.09800     K ( 1.00)
        Zr            12.00    91.22400     Zr( 1.00)
        Sn            14.00   118.71000     Sn( 1.00)
        O              6.00    15.99900     O ( 1.00)

      6 Sym. Ops. (no inversion) found



   Cartesian axes

     site n.     atom                  positions (alat units)
         1           K   tau(   1) = (   0.0000000   0.0000000   0.0000000  )
         2           K   tau(   2) = (   0.5000000   0.5000000   0.0000000  )
         3           K   tau(   3) = (   0.5000000   0.0000000   0.5000000  )
         4           K   tau(   4) = (   0.0000000   0.5000000   0.5000000  )
         5           Zr  tau(   5) = (   0.2500000   0.2500000   0.2500000  )
         6           Sn  tau(   6) = (   0.7500000   0.7500000   0.7500000  )
         7           O   tau(   7) = (   0.2500000   0.0000000   0.0000000  )
         8           O   tau(   8) = (   0.7500000   0.0000000   0.0000000  )
         9           O   tau(   9) = (   0.0000000   0.2500000   0.0000000  )
        10           O   tau(  10) = (   0.0000000   0.7500000   0.0000000  )
        11           O   tau(  11) = (   0.0000000   0.0000000   0.2500000  )
        12           O   tau(  12) = (   0.0000000   0.0000000   0.7500000  )

     number of k points=     6
                       cart. coord. in units 2pi/alat
        k(    1) = (   0.0000000   0.0000000   0.0000000), wk =   0.0740741
        k(    2) = (   0.0000000   0.0000000   0.3333333), wk =   0.4444444
        k(    3) = (   0.0000000   0.3333333   0.3333333), wk =   0.4444444
        k(    4) = (   0.3333333   0.3333333   0.3333333), wk =   0.1481481
        k(    5) = (  -0.3333333   0.0000000   0.3333333), wk =   0.4444444
        k(    6) = (   0.3333333  -0.3333333   0.3333333), wk =   0.4444444

     Dense  grid:    89199 G-vectors     FFT dimensions: (  60,  60,  60)

     Estimated max dynamical RAM per process >      31.15 MB

     Estimated total dynamical RAM >     498.43 MB

     Check: negative core charge=   -0.000002

     Initial potential from superposition of free atoms

     starting charge      97.9154, renormalised to      98.0000
     Starting wfcs are  136 randomized atomic wfcs
     Checking if some PAW data can be deallocated... 

     total cpu time spent up to now is        3.8 secs

     per-process dynamical memory:    60.3 Mb

     Self-consistent Calculation

     iteration #  1     ecut=    60.00 Ry     beta= 0.70
     Davidson diagonalization with overlap
     ethr =  1.00E-02,  avg # of iterations =  2.0

     total cpu time spent up to now is        5.2 secs

     total energy              =   -1445.87781108 Ry
     estimated scf accuracy    <       3.84731785 Ry

     iteration #  2     ecut=    60.00 Ry     beta= 0.70
     Davidson diagonalization with overlap
     ethr =  3.93E-03,  avg # of iterations =  6.2

     total cpu time spent up to now is        7.3 secs

     total energy              =   -1441.31396680 Ry
     estimated scf accuracy    <      42.55236745 Ry

     iteration #  3     ecut=    60.00 Ry     beta= 0.70
     Davidson diagonalization with overlap
     ethr =  3.93E-03,  avg # of iterations =  7.5

     total cpu time spent up to now is        9.5 secs

     total energy              =   -1447.54313816 Ry
     estimated scf accuracy    <       3.32691652 Ry

     iteration #  4     ecut=    60.00 Ry     beta= 0.70
     Davidson diagonalization with overlap
     ethr =  3.39E-03,  avg # of iterations =  6.0

     total cpu time spent up to now is       11.1 secs

     total energy              =   -1448.06397202 Ry
     estimated scf accuracy    <       0.85556708 Ry

     iteration #  5     ecut=    60.00 Ry     beta= 0.70
     Davidson diagonalization with overlap
     ethr =  8.73E-04,  avg # of iterations =  4.7

     total cpu time spent up to now is       12.6 secs

     total energy              =   -1448.07179419 Ry
     estimated scf accuracy    <       0.42652331 Ry

     iteration #  6     ecut=    60.00 Ry     beta= 0.70
     Davidson diagonalization with overlap
     ethr =  4.35E-04,  avg # of iterations =  2.7

     total cpu time spent up to now is       13.9 secs

     total energy              =   -1448.05231753 Ry
     estimated scf accuracy    <       0.15685292 Ry

     iteration #  7     ecut=    60.00 Ry     beta= 0.70
     Davidson diagonalization with overlap
     ethr =  1.60E-04,  avg # of iterations =  5.7

     total cpu time spent up to now is       15.6 secs

     total energy              =   -1448.07806228 Ry
     estimated scf accuracy    <       0.01726450 Ry

     iteration #  8     ecut=    60.00 Ry     beta= 0.70
     Davidson diagonalization with overlap
     ethr =  1.76E-05,  avg # of iterations =  5.0

     total cpu time spent up to now is       17.2 secs

     total energy              =   -1448.08022291 Ry
     estimated scf accuracy    <       0.00374563 Ry

     iteration #  9     ecut=    60.00 Ry     beta= 0.70
     Davidson diagonalization with overlap
     ethr =  3.82E-06,  avg # of iterations =  5.5

     total cpu time spent up to now is       18.9 secs

     total energy              =   -1448.08024203 Ry
     estimated scf accuracy    <       0.00229732 Ry

     iteration # 10     ecut=    60.00 Ry     beta= 0.70
     Davidson diagonalization with overlap
     ethr =  2.34E-06,  avg # of iterations =  5.3

     total cpu time spent up to now is       20.6 secs

     total energy              =   -1448.08059072 Ry
     estimated scf accuracy    <       0.00042074 Ry

     iteration # 11     ecut=    60.00 Ry     beta= 0.70
     Davidson diagonalization with overlap
     ethr =  4.29E-07,  avg # of iterations =  6.2

     total cpu time spent up to now is       22.2 secs

     total energy              =   -1448.08065232 Ry
     estimated scf accuracy    <       0.00003607 Ry

     iteration # 12     ecut=    60.00 Ry     beta= 0.70
     Davidson diagonalization with overlap
     ethr =  3.68E-08,  avg # of iterations =  6.3

     total cpu time spent up to now is       23.9 secs

     total energy              =   -1448.08065959 Ry
     estimated scf accuracy    <       0.00000419 Ry

     iteration # 13     ecut=    60.00 Ry     beta= 0.70
     Davidson diagonalization with overlap
     ethr =  4.28E-09,  avg # of iterations =  4.3

     total cpu time spent up to now is       25.6 secs

     total energy              =   -1448.08066042 Ry
     estimated scf accuracy    <       0.00000082 Ry

     iteration # 14     ecut=    60.00 Ry     beta= 0.70
     Davidson diagonalization with overlap
     ethr =  8.38E-10,  avg # of iterations =  6.0

     total cpu time spent up to now is       27.3 secs

     total energy              =   -1448.08066054 Ry
     estimated scf accuracy    <       0.00000004 Ry

     iteration # 15     ecut=    60.00 Ry     beta= 0.70
     Davidson diagonalization with overlap
     ethr =  3.66E-11,  avg # of iterations =  6.0

     total cpu time spent up to now is       29.4 secs

     total energy              =   -1448.08066055 Ry
     estimated scf accuracy    <       0.00000002 Ry

     iteration # 16     ecut=    60.00 Ry     beta= 0.70
     Davidson diagonalization with overlap
     ethr =  1.93E-11,  avg # of iterations =  4.3

     total cpu time spent up to now is       30.9 secs

     total energy              =   -1448.08066055 Ry
     estimated scf accuracy    <          1.1E-09 Ry

     iteration # 17     ecut=    60.00 Ry     beta= 0.70
     Davidson diagonalization with overlap
     ethr =  1.10E-12,  avg # of iterations =  6.5

     total cpu time spent up to now is       32.8 secs

     total energy              =   -1448.08066055 Ry
     estimated scf accuracy    <          6.8E-10 Ry

     iteration # 18     ecut=    60.00 Ry     beta= 0.70
     Davidson diagonalization with overlap
     ethr =  6.96E-13,  avg # of iterations =  4.7

     total cpu time spent up to now is       34.3 secs

     End of self-consistent calculation

          k = 0.0000 0.0000 0.0000 ( 11075 PWs)   bands (ev):

   -41.1601 -29.8145 -23.7589 -23.7589 -23.7393 -20.2093 -19.4716 -19.4716
   -17.8891 -17.8891 -17.8393 -14.5150 -14.5150 -14.3774 -14.3774 -14.2372
   -11.7176 -11.7176  -8.7526  -7.9899  -7.6435  -7.6435  -7.1582  -7.1582
    -7.0434  -7.0407  -7.0331  -7.0331  -4.4685  -4.4685  -4.3704  -1.4386
    -0.1515  -0.1515   1.1011   1.1011   1.7950   3.0858   3.0858   3.5901
     3.5901   3.9862   4.3504   5.5740   5.5740   6.3943   6.6323   8.0919
     8.5550

          k = 0.0000 0.0000 0.3333 ( 11188 PWs)   bands (ev):

   -41.1601 -29.8144 -23.7664 -23.7588 -23.7315 -20.2116 -19.4731 -19.4725
   -17.8923 -17.8876 -17.8392 -14.5201 -14.5146 -14.3782 -14.3771 -14.2352
   -11.7086 -11.6756  -8.7864  -7.8657  -7.6921  -7.6624  -7.1448  -7.1197
    -7.0596  -7.0491  -7.0346  -7.0305  -4.7452  -4.4539  -4.4128  -1.4411
    -0.1640  -0.1586   1.1143   1.4934   1.7421   3.1081   3.1623   3.5155
     3.6219   4.2769   4.3745   5.4795   5.4882   6.3388   6.8454   7.9795
     8.3036

          k = 0.0000 0.3333 0.3333 ( 11162 PWs)   bands (ev):

   -41.1601 -29.8143 -23.7645 -23.7631 -23.7288 -20.2133 -19.4743 -19.4738
   -17.8932 -17.8890 -17.8399 -14.5190 -14.5157 -14.3783 -14.3775 -14.2348
   -11.6901 -11.6492  -8.7756  -7.8153  -7.7104  -7.6651  -7.1412  -7.0903
    -7.0821  -7.0544  -7.0462  -7.0278  -4.7306  -4.7174  -4.4346  -1.4601
    -0.1965  -0.1697   1.3071   1.7174   1.7775   3.1393   3.2175   3.5368
     3.6464   4.3338   4.4163   5.3137   5.4330   6.2741   7.1634   8.2495
     8.2740

          k = 0.3333 0.3333 0.3333 ( 11188 PWs)   bands (ev):

   -41.1601 -29.8142 -23.7629 -23.7629 -23.7305 -20.2142 -19.4752 -19.4752
   -17.8926 -17.8926 -17.8415 -14.5156 -14.5156 -14.3783 -14.3783 -14.2361
   -11.6490 -11.6490  -8.7408  -7.8284  -7.6640  -7.6640  -7.1489  -7.0947
    -7.0947  -7.0693  -7.0693  -7.0070  -4.7178  -4.7178  -4.6920  -1.5099
    -0.2160  -0.2160   1.7234   1.7234   1.8636   3.2356   3.2356   3.6443
     3.6443   4.3046   4.4686   5.2845   5.2845   6.1979   7.3884   8.2283
     8.2283

          k =-0.3333 0.0000 0.3333 ( 11162 PWs)   bands (ev):

   -41.1601 -29.8143 -23.7681 -23.7612 -23.7272 -20.2125 -19.4743 -19.4738
   -17.8930 -17.8895 -17.8407 -14.5165 -14.5151 -14.3783 -14.3778 -14.2361
   -11.6973 -11.6490  -8.7375  -7.8497  -7.7241  -7.6595  -7.1378  -7.1197
    -7.0633  -7.0533  -7.0386  -7.0213  -4.7422  -4.7056  -4.4335  -1.4694
    -0.1951  -0.1682   1.3116   1.7144   1.8580   3.1023   3.2018   3.4925
     3.6828   4.2691   4.4085   5.3372   5.4566   6.2727   7.0915   8.1445
     8.2105

          k = 0.3333-0.3333 0.3333 ( 11188 PWs)   bands (ev):

   -41.1601 -29.8142 -23.7669 -23.7629 -23.7267 -20.2126 -19.4753 -19.4752
   -17.8933 -17.8927 -17.8431 -14.5143 -14.5103 -14.3787 -14.3785 -14.2383
   -11.6598 -11.6532  -8.6458  -7.9304  -7.6861  -7.6484  -7.1804  -7.1063
    -7.0780  -7.0533  -7.0385  -7.0083  -4.7347  -4.7247  -4.6625  -1.5186
    -0.2146  -0.2127   1.7176   1.7337   1.9605   3.1751   3.1830   3.6286
     3.6893   4.2301   4.4545   5.3117   5.3425   6.1930   7.4178   8.2145
     8.2833

     highest occupied level (ev):     8.5550

!    total energy              =   -1448.08066055 Ry
     total all-electron energy =     -1448.080661 Ry
     estimated scf accuracy    <          3.8E-12 Ry

     The total energy is the sum of the following terms:
     one-electron contribution =    -458.17255105 Ry
     hartree contribution      =     298.06255083 Ry
     xc contribution           =    -121.67886095 Ry
     ewald contribution        =    -342.76060911 Ry
     one-center paw contrib.   =    -823.53119028 Ry

     convergence has been achieved in  18 iterations

     Forces acting on atoms (cartesian axes, Ry/au):

     atom    1 type  1   force =    -0.02823147   -0.02823147   -0.02823147
     atom    2 type  1   force =    -0.03440595   -0.03440595    0.02810357
     atom    3 type  1   force =    -0.03440595    0.02810357   -0.03440595
     atom    4 type  1   force =     0.02810357   -0.03440595   -0.03440595
     atom    5 type  2   force =    -0.05041777   -0.05041777   -0.05041777
     atom    6 type  3   force =    -0.01560717   -0.01560717   -0.01560717
     atom    7 type  4   force =     0.67733260    0.01759066    0.01759066
     atom    8 type  4   force =    -0.62891404    0.02568243    0.02568243
     atom    9 type  4   force =     0.01759066    0.67733260    0.01759066
     atom   10 type  4   force =     0.02568243   -0.62891404    0.02568243
     atom   11 type  4   force =     0.01759066    0.01759066    0.67733260
     atom   12 type  4   force =     0.02568243    0.02568243   -0.62891404

     Total force =     1.609028     Total SCF correction =     0.000006


     Computing stress (Cartesian axis) and pressure

          total   stress  (Ry/bohr**3)                   (kbar)     P=      492.44
   0.00334751  -0.00008705  -0.00008705          492.44      -12.81      -12.81
  -0.00008705   0.00334751  -0.00008705          -12.81      492.44      -12.81
  -0.00008705  -0.00008705   0.00334751          -12.81      -12.81      492.44


     Writing all to output data dir ./K4ZrSnO6.save/

     init_run     :      2.10s CPU      2.29s WALL (       1 calls)
     electrons    :     29.97s CPU     30.59s WALL (       1 calls)
     forces       :      0.40s CPU      0.41s WALL (       1 calls)
     stress       :      1.12s CPU      1.14s WALL (       1 calls)

     Called by init_run:
     wfcinit      :      0.65s CPU      0.70s WALL (       1 calls)
     potinit      :      0.61s CPU      0.64s WALL (       1 calls)
     hinit0       :      0.74s CPU      0.80s WALL (       1 calls)

     Called by electrons:
     c_bands      :     17.57s CPU     17.92s WALL (      18 calls)
     sum_band     :      2.46s CPU      2.52s WALL (      18 calls)
     v_of_rho     :      0.22s CPU      0.24s WALL (      19 calls)
     newd         :      0.68s CPU      0.72s WALL (      19 calls)
     PAW_pot      :      9.51s CPU      9.62s WALL (      19 calls)
     mix_rho      :      0.05s CPU      0.06s WALL (      18 calls)

     Called by c_bands:
     init_us_2    :      0.18s CPU      0.19s WALL (     234 calls)
     init_us_2:cp :      0.18s CPU      0.19s WALL (     234 calls)
     cegterg      :     16.96s CPU     17.29s WALL (     108 calls)

     Called by *egterg:
     cdiaghg      :      6.27s CPU      6.37s WALL (     677 calls)
     h_psi        :      7.84s CPU      8.04s WALL (     683 calls)
     s_psi        :      0.80s CPU      0.81s WALL (     683 calls)
     g_psi        :      0.12s CPU      0.12s WALL (     569 calls)

     Called by h_psi:
     h_psi:calbec :      0.92s CPU      0.96s WALL (     683 calls)
     vloc_psi     :      6.05s CPU      6.19s WALL (     683 calls)
     add_vuspsi   :      0.83s CPU      0.84s WALL (     683 calls)

     General routines
     calbec       :      1.27s CPU      1.33s WALL (     821 calls)
     fft          :      0.34s CPU      0.40s WALL (     234 calls)
     ffts         :      0.01s CPU      0.01s WALL (      18 calls)
     fftw         :      6.30s CPU      6.45s WALL (   35084 calls)

     Parallel routines

     PWSCF        :     34.72s CPU     36.68s WALL


   This run was terminated on:  20:34:56  29Nov2025            

=------------------------------------------------------------------------------=
   JOB DONE.
=------------------------------------------------------------------------------=
