
     Program PWSCF v.7.1 starts on 29Nov2025 at 22:26:32 

     This program is part of the open-source Quantum ESPRESSO suite
     for quantum simulation of materials; please cite
         "P. Giannozzi et al., J. Phys.:Condens. Matter 21 395502 (2009);
         "P. Giannozzi et al., J. Phys.:Condens. Matter 29 465901 (2017);
         "P. Giannozzi et al., J. Chem. Phys. 152 154105 (2020);
          URL http://www.quantum-espresso.org", 
     in publications or presentations arising from this work. More details at
     http://www.quantum-espresso.org/quote

     Parallel version (MPI & OpenMP), running on      16 processor cores
     Number of MPI processes:                16
     Threads/MPI process:                     1

     MPI processes distributed on     1 nodes
     124224 MiB available memory on the printing compute node when the environment starts

     Waiting for input...
     Reading input from standard input

     Current dimensions of program PWSCF are:
     Max number of different atomic species (ntypx) = 10
     Max number of k-points (npk) =  40000
     Max angular momentum in pseudopotentials (lmaxx) =  4
     Message from routine read_pp_mesh:
     mismatch in mesh size, discarding the one in header
     Message from routine read_pp_mesh:
     mismatch in mesh size, discarding the one in header
     Message from routine read_pp_mesh:
     mismatch in mesh size, discarding the one in header
     Message from routine read_pp_mesh:
     mismatch in mesh size, discarding the one in header
     Message from routine setup:
     using ibrav=0 with symmetry is DISCOURAGED, use correct ibrav instead

     R & G space division:  proc/nbgrp/npool/nimage =      16
     Subspace diagonalization in iterative solution of the eigenvalue problem:
     a serial algorithm will be used


     Parallelization info
     --------------------
     sticks:   dense  smooth     PW     G-vecs:    dense   smooth      PW
     Min         351     175     48                19917     7027    1008
     Max         352     176     50                19922     7032    1009
     Sum        5629    2801    777               318721   112451   16135

     Using Slab Decomposition



     bravais-lattice index     =            0
     lattice parameter (alat)  =      11.2511  a.u.
     unit-cell volume          =    1424.2554 (a.u.)^3
     number of atoms/cell      =           12
     number of atomic types    =            4
     number of electrons       =        98.00
     number of Kohn-Sham states=           49
     kinetic-energy cutoff     =      70.0000  Ry
     charge density cutoff     =     560.0000  Ry
     scf convergence threshold =      1.0E-10
     mixing beta               =       0.7000
     number of iterations used =            8  plain     mixing
     Exchange-correlation= SLA PW PBX PBC
                           (   1   4   3   4   0   0   0)

     celldm(1)=  11.251125  celldm(2)=   0.000000  celldm(3)=   0.000000
     celldm(4)=   0.000000  celldm(5)=   0.000000  celldm(6)=   0.000000

     crystal axes: (cart. coord. in units of alat)
               a(1) = (   1.000000   0.000000   0.000000 )  
               a(2) = (   0.000000   1.000000   0.000000 )  
               a(3) = (   0.000000   0.000000   1.000000 )  

     reciprocal axes: (cart. coord. in units 2 pi/alat)
               b(1) = (  1.000000  0.000000  0.000000 )  
               b(2) = (  0.000000  1.000000  0.000000 )  
               b(3) = (  0.000000  0.000000  1.000000 )  


     PseudoPot. # 1 for K  read from file:
     ./K.upf
     MD5 check sum: 9356cfae17991a8ac93a0af773ad5d28
     Pseudo is Projector augmented-wave + core cor, Zval =  9.0
     Generated using ATOMPAW code
     Shape of augmentation charge: SINC**2
     Using radial grid of 2342 points,  5 beta functions with: 
                l(1) =   0
                l(2) =   0
                l(3) =   1
                l(4) =   1
                l(5) =   2
     Q(r) pseudized with 0 coefficients 


     PseudoPot. # 2 for Zr read from file:
     ./Zr.upf
     MD5 check sum: 10be9e9715c592225794718718b87d8f
     Pseudo is Projector augmented-wave + core cor, Zval = 12.0
     Generated using ATOMPAW code
     Shape of augmentation charge: BESSEL
     Using radial grid of 2342 points,  6 beta functions with: 
                l(1) =   0
                l(2) =   0
                l(3) =   1
                l(4) =   1
                l(5) =   2
                l(6) =   2
     Q(r) pseudized with 0 coefficients 


     PseudoPot. # 3 for Sn read from file:
     ./Sn.upf
     MD5 check sum: f8d5c2bd65c7f969f3af92fc3a9f2821
     Pseudo is Projector augmented-wave + core cor, Zval = 14.0
     Generated using ATOMPAW code
     Shape of augmentation charge: BESSEL
     Using radial grid of 2342 points,  6 beta functions with: 
                l(1) =   0
                l(2) =   0
                l(3) =   1
                l(4) =   1
                l(5) =   2
                l(6) =   2
     Q(r) pseudized with 0 coefficients 


     PseudoPot. # 4 for O  read from file:
     ./O.upf
     MD5 check sum: 45fbb1c0d1f8837f1e386a2947d3aa26
     Pseudo is Projector augmented-wave + core cor, Zval =  6.0
     Generated using ATOMPAW code
     Shape of augmentation charge: SINC**2
     Using radial grid of 2342 points,  4 beta functions with: 
                l(1) =   0
                l(2) =   0
                l(3) =   1
                l(4) =   1
     Q(r) pseudized with 0 coefficients 


     atomic species   valence    mass     pseudopotential
        K              9.00    39.09800     K ( 1.00)
        Zr            12.00    91.22400     Zr( 1.00)
        Sn            14.00   118.71000     Sn( 1.00)
        O              6.00    15.99900     O ( 1.00)

      6 Sym. Ops. (no inversion) found



   Cartesian axes

     site n.     atom                  positions (alat units)
         1           K   tau(   1) = (   0.0000000   0.0000000   0.0000000  )
         2           K   tau(   2) = (   0.5000000   0.5000000   0.0000000  )
         3           K   tau(   3) = (   0.5000000   0.0000000   0.5000000  )
         4           K   tau(   4) = (   0.0000000   0.5000000   0.5000000  )
         5           Zr  tau(   5) = (   0.2500000   0.2500000   0.2500000  )
         6           Sn  tau(   6) = (   0.7500000   0.7500000   0.7500000  )
         7           O   tau(   7) = (   0.2500000   0.0000000   0.0000000  )
         8           O   tau(   8) = (   0.7500000   0.0000000   0.0000000  )
         9           O   tau(   9) = (   0.0000000   0.2500000   0.0000000  )
        10           O   tau(  10) = (   0.0000000   0.7500000   0.0000000  )
        11           O   tau(  11) = (   0.0000000   0.0000000   0.2500000  )
        12           O   tau(  12) = (   0.0000000   0.0000000   0.7500000  )

     number of k points=    19
                       cart. coord. in units 2pi/alat
        k(    1) = (   0.0000000   0.0000000   0.0000000), wk =   0.0160000
        k(    2) = (   0.0000000   0.0000000   0.2000000), wk =   0.0960000
        k(    3) = (   0.0000000   0.0000000   0.4000000), wk =   0.0960000
        k(    4) = (   0.0000000   0.2000000   0.2000000), wk =   0.0960000
        k(    5) = (   0.0000000   0.2000000   0.4000000), wk =   0.1920000
        k(    6) = (   0.0000000   0.4000000   0.4000000), wk =   0.0960000
        k(    7) = (   0.2000000   0.2000000   0.2000000), wk =   0.0320000
        k(    8) = (   0.2000000   0.2000000   0.4000000), wk =   0.0960000
        k(    9) = (   0.2000000   0.4000000   0.4000000), wk =   0.0960000
        k(   10) = (   0.4000000   0.4000000   0.4000000), wk =   0.0320000
        k(   11) = (  -0.2000000   0.0000000   0.2000000), wk =   0.0960000
        k(   12) = (  -0.2000000   0.0000000   0.4000000), wk =   0.1920000
        k(   13) = (  -0.4000000   0.0000000   0.4000000), wk =   0.0960000
        k(   14) = (   0.2000000  -0.2000000   0.2000000), wk =   0.0960000
        k(   15) = (   0.2000000  -0.2000000   0.4000000), wk =   0.1920000
        k(   16) = (  -0.4000000   0.2000000   0.2000000), wk =   0.0960000
        k(   17) = (   0.4000000  -0.2000000   0.4000000), wk =   0.0960000
        k(   18) = (  -0.4000000   0.2000000   0.4000000), wk =   0.1920000
        k(   19) = (   0.4000000  -0.4000000   0.4000000), wk =   0.0960000

     Dense  grid:   318721 G-vectors     FFT dimensions: (  90,  90,  90)

     Smooth grid:   112451 G-vectors     FFT dimensions: (  60,  60,  60)

     Estimated max dynamical RAM per process >      97.49 MB

     Estimated total dynamical RAM >       1.52 GB

     Initial potential from superposition of free atoms

     starting charge      97.9154, renormalised to      98.0000
     Starting wfcs are  136 randomized atomic wfcs
     Checking if some PAW data can be deallocated... 

     total cpu time spent up to now is        6.4 secs

     per-process dynamical memory:    70.8 Mb

     Self-consistent Calculation

     iteration #  1     ecut=    70.00 Ry     beta= 0.70
     Davidson diagonalization with overlap
     ethr =  1.00E-02,  avg # of iterations =  2.1

     total cpu time spent up to now is       10.1 secs

     total energy              =   -1445.90403884 Ry
     estimated scf accuracy    <       3.81959381 Ry

     iteration #  2     ecut=    70.00 Ry     beta= 0.70
     Davidson diagonalization with overlap
     ethr =  3.90E-03,  avg # of iterations =  6.3

     total cpu time spent up to now is       16.5 secs

     total energy              =   -1441.47400436 Ry
     estimated scf accuracy    <      41.61085423 Ry

     iteration #  3     ecut=    70.00 Ry     beta= 0.70
     Davidson diagonalization with overlap
     ethr =  3.90E-03,  avg # of iterations =  8.2

     total cpu time spent up to now is       23.2 secs

     total energy              =   -1447.61915320 Ry
     estimated scf accuracy    <       3.48580313 Ry

     iteration #  4     ecut=    70.00 Ry     beta= 0.70
     Davidson diagonalization with overlap
     ethr =  3.56E-03,  avg # of iterations =  6.6

     total cpu time spent up to now is       27.7 secs

     total energy              =   -1448.06984320 Ry
     estimated scf accuracy    <       0.85315208 Ry

     iteration #  5     ecut=    70.00 Ry     beta= 0.70
     Davidson diagonalization with overlap
     ethr =  8.71E-04,  avg # of iterations =  4.1

     total cpu time spent up to now is       31.7 secs

     total energy              =   -1448.07286703 Ry
     estimated scf accuracy    <       0.42723267 Ry

     iteration #  6     ecut=    70.00 Ry     beta= 0.70
     Davidson diagonalization with overlap
     ethr =  4.36E-04,  avg # of iterations =  3.7

     total cpu time spent up to now is       35.5 secs

     total energy              =   -1448.06832421 Ry
     estimated scf accuracy    <       0.12475184 Ry

     iteration #  7     ecut=    70.00 Ry     beta= 0.70
     Davidson diagonalization with overlap
     ethr =  1.27E-04,  avg # of iterations =  4.8

     total cpu time spent up to now is       39.7 secs

     total energy              =   -1448.08032025 Ry
     estimated scf accuracy    <       0.00883663 Ry

     iteration #  8     ecut=    70.00 Ry     beta= 0.70
     Davidson diagonalization with overlap
     ethr =  9.02E-06,  avg # of iterations =  6.0

     total cpu time spent up to now is       45.1 secs

     total energy              =   -1448.08252491 Ry
     estimated scf accuracy    <       0.00305763 Ry

     iteration #  9     ecut=    70.00 Ry     beta= 0.70
     Davidson diagonalization with overlap
     ethr =  3.12E-06,  avg # of iterations =  6.8

     total cpu time spent up to now is       50.3 secs

     total energy              =   -1448.08314428 Ry
     estimated scf accuracy    <       0.00340386 Ry

     iteration # 10     ecut=    70.00 Ry     beta= 0.70
     Davidson diagonalization with overlap
     ethr =  3.12E-06,  avg # of iterations =  4.4

     total cpu time spent up to now is       54.2 secs

     total energy              =   -1448.08318521 Ry
     estimated scf accuracy    <       0.00079061 Ry

     iteration # 11     ecut=    70.00 Ry     beta= 0.70
     Davidson diagonalization with overlap
     ethr =  8.07E-07,  avg # of iterations =  6.5

     total cpu time spent up to now is       58.7 secs

     total energy              =   -1448.08323580 Ry
     estimated scf accuracy    <       0.00008914 Ry

     iteration # 12     ecut=    70.00 Ry     beta= 0.70
     Davidson diagonalization with overlap
     c_bands:  1 eigenvalues not converged
     ethr =  9.10E-08,  avg # of iterations =  7.5

     total cpu time spent up to now is       63.8 secs

     total energy              =   -1448.08386124 Ry
     estimated scf accuracy    <       0.00022867 Ry

     iteration # 13     ecut=    70.00 Ry     beta= 0.70
     Davidson diagonalization with overlap
     ethr =  9.10E-08,  avg # of iterations =  3.6

     total cpu time spent up to now is       67.4 secs

     total energy              =   -1448.08383709 Ry
     estimated scf accuracy    <       0.00015715 Ry

     iteration # 14     ecut=    70.00 Ry     beta= 0.70
     Davidson diagonalization with overlap
     ethr =  9.10E-08,  avg # of iterations =  6.6

     total cpu time spent up to now is       71.8 secs

     total energy              =   -1448.08383521 Ry
     estimated scf accuracy    <       0.00004981 Ry

     iteration # 15     ecut=    70.00 Ry     beta= 0.70
     Davidson diagonalization with overlap
     ethr =  5.08E-08,  avg # of iterations =  6.5

     total cpu time spent up to now is       76.1 secs

     total energy              =   -1448.08383898 Ry
     estimated scf accuracy    <       0.00000161 Ry

     iteration # 16     ecut=    70.00 Ry     beta= 0.70
     Davidson diagonalization with overlap
     ethr =  1.65E-09,  avg # of iterations =  7.7

     total cpu time spent up to now is       81.8 secs

     total energy              =   -1448.08383957 Ry
     estimated scf accuracy    <       0.00000032 Ry

     iteration # 17     ecut=    70.00 Ry     beta= 0.70
     Davidson diagonalization with overlap
     ethr =  3.28E-10,  avg # of iterations =  6.6

     total cpu time spent up to now is       87.0 secs

     total energy              =   -1448.08383946 Ry
     estimated scf accuracy    <       0.00000060 Ry

     iteration # 18     ecut=    70.00 Ry     beta= 0.70
     Davidson diagonalization with overlap
     ethr =  3.28E-10,  avg # of iterations =  8.9

     total cpu time spent up to now is       92.1 secs

     total energy              =   -1448.08383954 Ry
     estimated scf accuracy    <          4.7E-09 Ry

     iteration # 19     ecut=    70.00 Ry     beta= 0.70
     Davidson diagonalization with overlap
     ethr =  4.81E-12,  avg # of iterations =  6.9

     total cpu time spent up to now is       98.9 secs

     total energy              =   -1448.08383955 Ry
     estimated scf accuracy    <          4.3E-09 Ry

     iteration # 20     ecut=    70.00 Ry     beta= 0.70
     Davidson diagonalization with overlap
     ethr =  4.34E-12,  avg # of iterations =  4.8

     total cpu time spent up to now is      102.7 secs

     total energy              =   -1448.08383955 Ry
     estimated scf accuracy    <          1.0E-09 Ry

     iteration # 21     ecut=    70.00 Ry     beta= 0.70
     Davidson diagonalization with overlap
     ethr =  1.02E-12,  avg # of iterations =  7.6

     total cpu time spent up to now is      107.5 secs

     total energy              =   -1448.08383955 Ry
     estimated scf accuracy    <          2.2E-10 Ry

     iteration # 22     ecut=    70.00 Ry     beta= 0.70
     Davidson diagonalization with overlap
     ethr =  2.28E-13,  avg # of iterations =  3.2

     total cpu time spent up to now is      111.1 secs

     total energy              =   -1448.08383955 Ry
     estimated scf accuracy    <          1.0E-10 Ry

     iteration # 23     ecut=    70.00 Ry     beta= 0.70
     Davidson diagonalization with overlap
     ethr =  1.06E-13,  avg # of iterations =  7.3

     total cpu time spent up to now is      116.0 secs

     End of self-consistent calculation

          k = 0.0000 0.0000 0.0000 ( 13997 PWs)   bands (ev):

   -41.1203 -29.7887 -23.7593 -23.7593 -23.7401 -20.1885 -19.4266 -19.4266
   -17.8639 -17.8639 -17.8176 -14.4868 -14.4868 -14.3495 -14.3495 -14.2121
   -11.6942 -11.6942  -8.7304  -7.9851  -7.6391  -7.6391  -7.1639  -7.1639
    -7.0507  -7.0397  -7.0343  -7.0343  -4.4445  -4.4445  -4.3471  -1.4175
    -0.1304  -0.1304   1.1236   1.1236   1.8145   3.1073   3.1073   3.6098
     3.6098   3.9950   4.3701   5.5955   5.5955   6.4147   6.6507   8.0689
     8.5791

          k = 0.0000 0.0000 0.2000 ( 14078 PWs)   bands (ev):

   -41.1203 -29.7887 -23.7633 -23.7592 -23.7360 -20.1896 -19.4273 -19.4270
   -17.8653 -17.8632 -17.8176 -14.4892 -14.4867 -14.3499 -14.3493 -14.2112
   -11.6900 -11.6748  -8.7483  -7.9306  -7.6571  -7.6478  -7.1584  -7.1484
    -7.0567  -7.0427  -7.0352  -7.0329  -4.5646  -4.4378  -4.3763  -1.4185
    -0.1362  -0.1338   1.1298   1.3083   1.7873   3.1175   3.1370   3.5686
     3.6255   4.1446   4.3793   5.5486   5.5567   6.3895   6.7357   8.0275
     8.4373

          k = 0.0000 0.0000 0.4000 ( 14078 PWs)   bands (ev):

   -41.1203 -29.7886 -23.7679 -23.7591 -23.7311 -20.1914 -19.4285 -19.4277
   -17.8678 -17.8621 -17.8174 -14.4931 -14.4864 -14.3504 -14.3490 -14.2098
   -11.6832 -11.6434  -8.7713  -7.8273  -7.7061  -7.6618  -7.1484  -7.1153
    -7.0706  -7.0509  -7.0344  -7.0314  -4.7815  -4.4270  -4.3931  -1.4206
    -0.1454  -0.1387   1.1398   1.5879   1.7581   3.1343   3.2049   3.5233
     3.6475   4.3360   4.4015   5.4865   5.4915   6.3475   6.9316   7.9310
     8.2663

          k = 0.0000 0.2000 0.2000 ( 14033 PWs)   bands (ev):

   -41.1203 -29.7886 -23.7624 -23.7612 -23.7346 -20.1909 -19.4279 -19.4276
   -17.8657 -17.8635 -17.8174 -14.4915 -14.4872 -14.3499 -14.3493 -14.2100
   -11.6761 -11.6629  -8.7745  -7.8712  -7.6743  -7.6484  -7.1532  -7.1316
    -7.0672  -7.0457  -7.0394  -7.0348  -4.5723  -4.5370  -4.4056  -1.4184
    -0.1466  -0.1394   1.2199   1.4068   1.7471   3.1462   3.1662   3.5934
     3.6070   4.2710   4.3955   5.4826   5.5046   6.3630   6.8636   8.0315
     8.3857

          k = 0.0000 0.2000 0.4000 ( 14094 PWs)   bands (ev):

   -41.1203 -29.7886 -23.7667 -23.7610 -23.7303 -20.1922 -19.4290 -19.4283
   -17.8678 -17.8631 -17.8178 -14.4923 -14.4870 -14.3504 -14.3493 -14.2096
   -11.6718 -11.6340  -8.7669  -7.8102  -7.7098  -7.6597  -7.1481  -7.1027
    -7.0808  -7.0548  -7.0402  -7.0300  -4.7705  -4.5459  -4.4094  -1.4300
    -0.1622  -0.1450   1.2593   1.6608   1.7782   3.1528   3.2249   3.5471
     3.6526   4.3547   4.4209   5.3977   5.4673   6.3170   7.0791   8.0666
     8.2523

          k = 0.0000 0.4000 0.4000 ( 14077 PWs)   bands (ev):

   -41.1203 -29.7885 -23.7656 -23.7644 -23.7279 -20.1928 -19.4299 -19.4293
   -17.8687 -17.8641 -17.8189 -14.4890 -14.4878 -14.3505 -14.3498 -14.2103
   -11.6662 -11.6111  -8.7300  -7.8076  -7.7120  -7.6658  -7.1471  -7.1016
    -7.0804  -7.0547  -7.0538  -7.0225  -4.7544  -4.7497  -4.4122  -1.4521
    -0.1890  -0.1516   1.3689   1.8536   1.8701   3.1504   3.2694   3.5326
     3.7061   4.3161   4.4554   5.2773   5.4423   6.2658   7.3292   8.1897
     8.3970

          k = 0.2000 0.2000 0.2000 ( 14066 PWs)   bands (ev):

   -41.1203 -29.7886 -23.7612 -23.7612 -23.7357 -20.1925 -19.4283 -19.4283
   -17.8649 -17.8649 -17.8170 -14.4911 -14.4911 -14.3496 -14.3496 -14.2086
   -11.6552 -11.6552  -8.8103  -7.8140  -7.6603  -7.6603  -7.1243  -7.1243
    -7.0892  -7.0595  -7.0595  -7.0242  -4.5576  -4.5576  -4.5315  -1.4218
    -0.1542  -0.1542   1.4067   1.4067   1.7117   3.1993   3.1993   3.6047
     3.6047   4.3737   4.4176   5.4261   5.4261   6.3353   6.9783   8.1139
     8.4145

          k = 0.2000 0.2000 0.4000 ( 14119 PWs)   bands (ev):

   -41.1203 -29.7885 -23.7652 -23.7610 -23.7316 -20.1932 -19.4295 -19.4290
   -17.8674 -17.8644 -17.8180 -14.4910 -14.4892 -14.3502 -14.3496 -14.2093
   -11.6558 -11.6260  -8.7780  -7.7897  -7.6879  -7.6616  -7.1209  -7.1142
    -7.0829  -7.0763  -7.0629  -7.0172  -4.7598  -4.5540  -4.5330  -1.4453
    -0.1736  -0.1626   1.4189   1.6868   1.7990   3.1969   3.2543   3.5627
     3.6658   4.3754   4.4449   5.3394   5.4043   6.2854   7.1717   8.1970
     8.3213

          k = 0.2000 0.4000 0.4000 ( 14104 PWs)   bands (ev):

   -41.1203 -29.7884 -23.7643 -23.7639 -23.7297 -20.1933 -19.4304 -19.4299
   -17.8685 -17.8658 -17.8197 -14.4877 -14.4873 -14.3505 -14.3501 -14.2110
   -11.6468 -11.6109  -8.7174  -7.8218  -7.6737  -7.6648  -7.1530  -7.0977
    -7.0857  -7.0760  -7.0659  -7.0094  -4.7472  -4.7418  -4.5385  -1.4795
    -0.1995  -0.1768   1.5627   1.8706   1.8918   3.2013   3.2824   3.5875
     3.7124   4.3071   4.4804   5.2646   5.3728   6.2290   7.4005   8.1752
     8.3368

          k = 0.4000 0.4000 0.4000 ( 14082 PWs)   bands (ev):

   -41.1203 -29.7883 -23.7641 -23.7641 -23.7298 -20.1927 -19.4311 -19.4311
   -17.8686 -17.8686 -17.8220 -14.4836 -14.4836 -14.3508 -14.3508 -14.2136
   -11.6186 -11.6186  -8.6218  -7.8996  -7.6513  -7.6513  -7.1888  -7.1094
    -7.1094  -7.0574  -7.0574  -6.9991  -4.7482  -4.7482  -4.6957  -1.5285
    -0.2139  -0.2139   1.8791   1.8791   2.0011   3.2582   3.2582   3.7118
     3.7118   4.2322   4.5213   5.2806   5.2806   6.1651   7.6379   8.2554
     8.2554

          k =-0.2000 0.0000 0.2000 ( 14033 PWs)   bands (ev):

   -41.1203 -29.7886 -23.7664 -23.7600 -23.7320 -20.1900 -19.4279 -19.4276
   -17.8656 -17.8640 -17.8183 -14.4880 -14.4868 -14.3499 -14.3496 -14.2115
   -11.6848 -11.6628  -8.7265  -7.9179  -7.6835  -7.6451  -7.1515  -7.1469
    -7.0552  -7.0494  -7.0319  -7.0272  -4.5802  -4.5353  -4.3986  -1.4299
    -0.1447  -0.1375   1.2275   1.4059   1.8366   3.1127   3.1457   3.5371
     3.6506   4.1860   4.3865   5.5057   5.5443   6.3613   6.8013   8.0583
     8.3344

          k =-0.2000 0.0000 0.4000 ( 14094 PWs)   bands (ev):

   -41.1203 -29.7886 -23.7685 -23.7605 -23.7290 -20.1916 -19.4290 -19.4283
   -17.8678 -17.8634 -17.8184 -14.4903 -14.4867 -14.3504 -14.3494 -14.2105
   -11.6768 -11.6344  -8.7385  -7.8384  -7.7170  -7.6556  -7.1472  -7.1212
    -7.0648  -7.0566  -7.0352  -7.0257  -4.7715  -4.5457  -4.4077  -1.4370
    -0.1610  -0.1439   1.2630   1.6626   1.8316   3.1306   3.2116   3.5182
     3.6756   4.3022   4.4151   5.4156   5.4873   6.3160   7.0272   8.0354
     8.2825

          k =-0.4000 0.0000 0.4000 ( 14077 PWs)   bands (ev):

   -41.1203 -29.7885 -23.7678 -23.7629 -23.7272 -20.1925 -19.4300 -19.4293
   -17.8686 -17.8643 -17.8193 -14.4882 -14.4871 -14.3505 -14.3499 -14.2109
   -11.6696 -11.6111  -8.7120  -7.8222  -7.7214  -7.6617  -7.1443  -7.1182
    -7.0667  -7.0604  -7.0469  -7.0198  -4.7636  -4.7400  -4.4119  -1.4563
    -0.1884  -0.1509   1.3707   1.8607   1.9010   3.1310   3.2630   3.5105
     3.7235   4.2871   4.4519   5.2886   5.4515   6.2652   7.2888   8.1593
     8.2794

          k = 0.2000-0.2000 0.2000 ( 14066 PWs)   bands (ev):

   -41.1203 -29.7886 -23.7668 -23.7611 -23.7303 -20.1906 -19.4284 -19.4283
   -17.8658 -17.8650 -17.8188 -14.4898 -14.4846 -14.3501 -14.3498 -14.2115
   -11.6683 -11.6598  -8.7163  -7.8986  -7.6994  -7.6424  -7.1626  -7.1296
    -7.0574  -7.0517  -7.0363  -7.0228  -4.5778  -4.5690  -4.4959  -1.4394
    -0.1512  -0.1502   1.4070   1.4193   1.8502   3.1392   3.1443   3.5668
     3.6506   4.2361   4.4007   5.4656   5.4996   6.3310   6.9215   8.0810
     8.2825

          k = 0.2000-0.2000 0.4000 ( 14119 PWs)   bands (ev):

   -41.1203 -29.7885 -23.7680 -23.7623 -23.7279 -20.1916 -19.4295 -19.4291
   -17.8682 -17.8645 -17.8195 -14.4897 -14.4840 -14.3506 -14.3498 -14.2115
   -11.6608 -11.6357  -8.6967  -7.8749  -7.7063  -7.6496  -7.1719  -7.1053
    -7.0695  -7.0483  -7.0414  -7.0215  -4.7639  -4.5601  -4.5182  -1.4547
    -0.1725  -0.1588   1.4185   1.7103   1.8713   3.1425   3.2070   3.5930
     3.6640   4.2878   4.4321   5.4062   5.4324   6.2808   7.1924   8.1196
     8.2169

          k =-0.4000 0.2000 0.2000 ( 14119 PWs)   bands (ev):

   -41.1203 -29.7885 -23.7682 -23.7610 -23.7288 -20.1920 -19.4295 -19.4290
   -17.8674 -17.8650 -17.8191 -14.4884 -14.4870 -14.3503 -14.3499 -14.2111
   -11.6639 -11.6289  -8.7195  -7.8444  -7.7104  -7.6506  -7.1494  -7.1195
    -7.0701  -7.0612  -7.0458  -7.0156  -4.7596  -4.5665  -4.5178  -1.4560
    -0.1712  -0.1609   1.4268   1.6880   1.8867   3.1617   3.2115   3.5371
     3.6966   4.2947   4.4342   5.3639   5.4476   6.2828   7.1252   8.1279
     8.2545

          k = 0.4000-0.2000 0.4000 ( 14104 PWs)   bands (ev):

   -41.1203 -29.7884 -23.7668 -23.7642 -23.7270 -20.1920 -19.4304 -19.4301
   -17.8690 -17.8659 -17.8209 -14.4863 -14.4837 -14.3509 -14.3503 -14.2126
   -11.6501 -11.6191  -8.6451  -7.9064  -7.6824  -7.6529  -7.1833  -7.0996
    -7.0825  -7.0498  -7.0441  -7.0151  -4.7598  -4.7318  -4.5316  -1.4844
    -0.1986  -0.1743   1.5645   1.8783   1.9449   3.1635   3.2383   3.6228
     3.7059   4.2551   4.4711   5.3087   5.3972   6.2252   7.4714   8.2343
     8.3681

          k =-0.4000 0.2000 0.4000 ( 14104 PWs)   bands (ev):

   -41.1203 -29.7884 -23.7673 -23.7632 -23.7276 -20.1923 -19.4304 -19.4300
   -17.8687 -17.8660 -17.8206 -14.4869 -14.4842 -14.3507 -14.3503 -14.2123
   -11.6519 -11.6149  -8.6619  -7.8820  -7.6894  -7.6518  -7.1741  -7.1038
    -7.0800  -7.0620  -7.0462  -7.0107  -4.7565  -4.7333  -4.5344  -1.4851
    -0.1983  -0.1751   1.5658   1.8676   1.9559   3.1664   3.2479   3.5871
     3.7291   4.2594   4.4721   5.2917   5.3988   6.2262   7.4112   8.1696
     8.3020

          k = 0.4000-0.4000 0.4000 ( 14082 PWs)   bands (ev):

   -41.1203 -29.7883 -23.7659 -23.7641 -23.7281 -20.1920 -19.4311 -19.4311
   -17.8690 -17.8686 -17.8228 -14.4830 -14.4811 -14.3511 -14.3509 -14.2146
   -11.6237 -11.6207  -8.5652  -7.9639  -7.6576  -7.6439  -7.2012  -7.1137
    -7.1015  -7.0506  -7.0449  -7.0002  -4.7560  -4.7514  -4.6818  -1.5315
    -0.2135  -0.2123   1.8737   1.8838   2.0447   3.2289   3.2329   3.7059
     3.7338   4.2059   4.5148   5.2921   5.3064   6.1624   7.6815   8.2935
     8.3851

     highest occupied level (ev):     8.5791

!    total energy              =   -1448.08383955 Ry
     total all-electron energy =     -1448.083840 Ry
     estimated scf accuracy    <          5.5E-11 Ry

     The total energy is the sum of the following terms:
     one-electron contribution =    -458.29596118 Ry
     hartree contribution      =     298.19373794 Ry
     xc contribution           =    -121.68638568 Ry
     ewald contribution        =    -342.76060903 Ry
     one-center paw contrib.   =    -823.53462160 Ry

     convergence has been achieved in  23 iterations

     Forces acting on atoms (cartesian axes, Ry/au):

     atom    1 type  1   force =    -0.02773987   -0.02773987   -0.02773987
     atom    2 type  1   force =    -0.03468175   -0.03468175    0.02825991
     atom    3 type  1   force =    -0.03468175    0.02825991   -0.03468175
     atom    4 type  1   force =     0.02825991   -0.03468175   -0.03468175
     atom    5 type  2   force =    -0.05132304   -0.05132304   -0.05132304
     atom    6 type  3   force =    -0.01509422   -0.01509422   -0.01509422
     atom    7 type  4   force =     0.67740887    0.01796350    0.01796350
     atom    8 type  4   force =    -0.62927537    0.02560011    0.02560011
     atom    9 type  4   force =     0.01796350    0.67740887    0.01796350
     atom   10 type  4   force =     0.02560011   -0.62927537    0.02560011
     atom   11 type  4   force =     0.01796350    0.01796350    0.67740887
     atom   12 type  4   force =     0.02560011    0.02560011   -0.62927537

     Total force =     1.609654     Total SCF correction =     0.000027


     Computing stress (Cartesian axis) and pressure

          total   stress  (Ry/bohr**3)                   (kbar)     P=      495.33
   0.00336718  -0.00008911  -0.00008911          495.33      -13.11      -13.11
  -0.00008911   0.00336718  -0.00008911          -13.11      495.33      -13.11
  -0.00008911  -0.00008911   0.00336718          -13.11      -13.11      495.33


     Writing all to output data dir ./K4ZrSnO6.save/

     init_run     :      5.19s CPU      5.34s WALL (       1 calls)
     electrons    :    106.19s CPU    109.69s WALL (       1 calls)
     forces       :      1.18s CPU      1.24s WALL (       1 calls)
     stress       :      3.56s CPU      3.66s WALL (       1 calls)

     Called by init_run:
     wfcinit      :      2.38s CPU      2.43s WALL (       1 calls)
     potinit      :      1.03s CPU      1.06s WALL (       1 calls)
     hinit0       :      1.13s CPU      1.14s WALL (       1 calls)

     Called by electrons:
     c_bands      :     79.59s CPU     81.23s WALL (      23 calls)
     sum_band     :     11.18s CPU     12.09s WALL (      23 calls)
     v_of_rho     :      0.98s CPU      1.02s WALL (      24 calls)
     newd         :      2.88s CPU      3.60s WALL (      24 calls)
     PAW_pot      :     11.97s CPU     12.10s WALL (      24 calls)
     mix_rho      :      0.14s CPU      0.15s WALL (      23 calls)

     Called by c_bands:
     init_us_2    :      0.93s CPU      0.98s WALL (     931 calls)
     init_us_2:cp :      0.92s CPU      0.97s WALL (     931 calls)
     cegterg      :     76.48s CPU     78.04s WALL (     437 calls)

     Called by *egterg:
     cdiaghg      :     27.16s CPU     27.56s WALL (    3034 calls)
     h_psi        :     34.74s CPU     35.66s WALL (    3053 calls)
     s_psi        :      3.97s CPU      4.02s WALL (    3053 calls)
     g_psi        :      0.57s CPU      0.58s WALL (    2597 calls)

     Called by h_psi:
     h_psi:calbec :      4.49s CPU      4.66s WALL (    3053 calls)
     vloc_psi     :     25.99s CPU     26.68s WALL (    3053 calls)
     add_vuspsi   :      4.06s CPU      4.12s WALL (    3053 calls)

     General routines
     calbec       :      6.14s CPU      6.39s WALL (    3585 calls)
     fft          :      0.63s CPU      0.68s WALL (     335 calls)
     ffts         :      0.25s CPU      0.25s WALL (      47 calls)
     fftw         :     27.51s CPU     28.22s WALL (  135905 calls)
     interpolate  :      0.28s CPU      0.29s WALL (      24 calls)

     Parallel routines

     PWSCF        :   1m57.43s CPU   2m 3.47s WALL


   This run was terminated on:  22:28:35  29Nov2025            

=------------------------------------------------------------------------------=
   JOB DONE.
=------------------------------------------------------------------------------=
