
     Program PWSCF v.7.1 starts on 30Nov2025 at  3:44:44 

     This program is part of the open-source Quantum ESPRESSO suite
     for quantum simulation of materials; please cite
         "P. Giannozzi et al., J. Phys.:Condens. Matter 21 395502 (2009);
         "P. Giannozzi et al., J. Phys.:Condens. Matter 29 465901 (2017);
         "P. Giannozzi et al., J. Chem. Phys. 152 154105 (2020);
          URL http://www.quantum-espresso.org", 
     in publications or presentations arising from this work. More details at
     http://www.quantum-espresso.org/quote

     Parallel version (MPI & OpenMP), running on      16 processor cores
     Number of MPI processes:                16
     Threads/MPI process:                     1

     MPI processes distributed on     1 nodes
     34986 MiB available memory on the printing compute node when the environment starts

     Waiting for input...
     Reading input from standard input

     Current dimensions of program PWSCF are:
     Max number of different atomic species (ntypx) = 10
     Max number of k-points (npk) =  40000
     Max angular momentum in pseudopotentials (lmaxx) =  4
     Message from routine read_pp_mesh:
     mismatch in mesh size, discarding the one in header
     Message from routine read_pp_mesh:
     mismatch in mesh size, discarding the one in header
     Message from routine read_pp_mesh:
     mismatch in mesh size, discarding the one in header
     Message from routine read_pp_mesh:
     mismatch in mesh size, discarding the one in header
     Message from routine setup:
     using ibrav=0 with symmetry is DISCOURAGED, use correct ibrav instead

     R & G space division:  proc/nbgrp/npool/nimage =      16
     Subspace diagonalization in iterative solution of the eigenvalue problem:
     a serial algorithm will be used


     Parallelization info
     --------------------
     sticks:   dense  smooth     PW     G-vecs:    dense   smooth      PW
     Min         403     202     54                24333     8620    1220
     Max         404     203     55                24336     8623    1223
     Sum        6461    3233    877               389351   137929   19549

     Using Slab Decomposition



     bravais-lattice index     =            0
     lattice parameter (alat)  =      11.2511  a.u.
     unit-cell volume          =    1424.2554 (a.u.)^3
     number of atoms/cell      =           12
     number of atomic types    =            4
     number of electrons       =        98.00
     number of Kohn-Sham states=           49
     kinetic-energy cutoff     =      80.0000  Ry
     charge density cutoff     =     640.0000  Ry
     scf convergence threshold =      1.0E-10
     mixing beta               =       0.7000
     number of iterations used =            8  plain     mixing
     Exchange-correlation= SLA PW PBX PBC
                           (   1   4   3   4   0   0   0)

     celldm(1)=  11.251125  celldm(2)=   0.000000  celldm(3)=   0.000000
     celldm(4)=   0.000000  celldm(5)=   0.000000  celldm(6)=   0.000000

     crystal axes: (cart. coord. in units of alat)
               a(1) = (   1.000000   0.000000   0.000000 )  
               a(2) = (   0.000000   1.000000   0.000000 )  
               a(3) = (   0.000000   0.000000   1.000000 )  

     reciprocal axes: (cart. coord. in units 2 pi/alat)
               b(1) = (  1.000000  0.000000  0.000000 )  
               b(2) = (  0.000000  1.000000  0.000000 )  
               b(3) = (  0.000000  0.000000  1.000000 )  


     PseudoPot. # 1 for K  read from file:
     ./K.upf
     MD5 check sum: 9356cfae17991a8ac93a0af773ad5d28
     Pseudo is Projector augmented-wave + core cor, Zval =  9.0
     Generated using ATOMPAW code
     Shape of augmentation charge: SINC**2
     Using radial grid of 2342 points,  5 beta functions with: 
                l(1) =   0
                l(2) =   0
                l(3) =   1
                l(4) =   1
                l(5) =   2
     Q(r) pseudized with 0 coefficients 


     PseudoPot. # 2 for Zr read from file:
     ./Zr.upf
     MD5 check sum: 10be9e9715c592225794718718b87d8f
     Pseudo is Projector augmented-wave + core cor, Zval = 12.0
     Generated using ATOMPAW code
     Shape of augmentation charge: BESSEL
     Using radial grid of 2342 points,  6 beta functions with: 
                l(1) =   0
                l(2) =   0
                l(3) =   1
                l(4) =   1
                l(5) =   2
                l(6) =   2
     Q(r) pseudized with 0 coefficients 


     PseudoPot. # 3 for Sn read from file:
     ./Sn.upf
     MD5 check sum: f8d5c2bd65c7f969f3af92fc3a9f2821
     Pseudo is Projector augmented-wave + core cor, Zval = 14.0
     Generated using ATOMPAW code
     Shape of augmentation charge: BESSEL
     Using radial grid of 2342 points,  6 beta functions with: 
                l(1) =   0
                l(2) =   0
                l(3) =   1
                l(4) =   1
                l(5) =   2
                l(6) =   2
     Q(r) pseudized with 0 coefficients 


     PseudoPot. # 4 for O  read from file:
     ./O.upf
     MD5 check sum: 45fbb1c0d1f8837f1e386a2947d3aa26
     Pseudo is Projector augmented-wave + core cor, Zval =  6.0
     Generated using ATOMPAW code
     Shape of augmentation charge: SINC**2
     Using radial grid of 2342 points,  4 beta functions with: 
                l(1) =   0
                l(2) =   0
                l(3) =   1
                l(4) =   1
     Q(r) pseudized with 0 coefficients 


     atomic species   valence    mass     pseudopotential
        K              9.00    39.09800     K ( 1.00)
        Zr            12.00    91.22400     Zr( 1.00)
        Sn            14.00   118.71000     Sn( 1.00)
        O              6.00    15.99900     O ( 1.00)

      6 Sym. Ops. (no inversion) found



   Cartesian axes

     site n.     atom                  positions (alat units)
         1           K   tau(   1) = (   0.0000000   0.0000000   0.0000000  )
         2           K   tau(   2) = (   0.5000000   0.5000000   0.0000000  )
         3           K   tau(   3) = (   0.5000000   0.0000000   0.5000000  )
         4           K   tau(   4) = (   0.0000000   0.5000000   0.5000000  )
         5           Sn  tau(   5) = (   0.2500000   0.2500000   0.2500000  )
         6           Zr  tau(   6) = (   0.7500000   0.7500000   0.7500000  )
         7           O   tau(   7) = (   0.2500000   0.0000000   0.0000000  )
         8           O   tau(   8) = (   0.7500000   0.0000000   0.0000000  )
         9           O   tau(   9) = (   0.0000000   0.2500000   0.0000000  )
        10           O   tau(  10) = (   0.0000000   0.7500000   0.0000000  )
        11           O   tau(  11) = (   0.0000000   0.0000000   0.2500000  )
        12           O   tau(  12) = (   0.0000000   0.0000000   0.7500000  )

     number of k points=    19
                       cart. coord. in units 2pi/alat
        k(    1) = (   0.0000000   0.0000000   0.0000000), wk =   0.0160000
        k(    2) = (   0.0000000   0.0000000   0.2000000), wk =   0.0960000
        k(    3) = (   0.0000000   0.0000000   0.4000000), wk =   0.0960000
        k(    4) = (   0.0000000   0.2000000   0.2000000), wk =   0.0960000
        k(    5) = (   0.0000000   0.2000000   0.4000000), wk =   0.1920000
        k(    6) = (   0.0000000   0.4000000   0.4000000), wk =   0.0960000
        k(    7) = (   0.2000000   0.2000000   0.2000000), wk =   0.0320000
        k(    8) = (   0.2000000   0.2000000   0.4000000), wk =   0.0960000
        k(    9) = (   0.2000000   0.4000000   0.4000000), wk =   0.0960000
        k(   10) = (   0.4000000   0.4000000   0.4000000), wk =   0.0320000
        k(   11) = (  -0.2000000   0.0000000   0.2000000), wk =   0.0960000
        k(   12) = (  -0.2000000   0.0000000   0.4000000), wk =   0.1920000
        k(   13) = (  -0.4000000   0.0000000   0.4000000), wk =   0.0960000
        k(   14) = (   0.2000000  -0.2000000   0.2000000), wk =   0.0960000
        k(   15) = (   0.2000000  -0.2000000   0.4000000), wk =   0.1920000
        k(   16) = (  -0.4000000   0.2000000   0.2000000), wk =   0.0960000
        k(   17) = (   0.4000000  -0.2000000   0.4000000), wk =   0.0960000
        k(   18) = (  -0.4000000   0.2000000   0.4000000), wk =   0.1920000
        k(   19) = (   0.4000000  -0.4000000   0.4000000), wk =   0.0960000

     Dense  grid:   389351 G-vectors     FFT dimensions: (  96,  96,  96)

     Smooth grid:   137929 G-vectors     FFT dimensions: (  72,  72,  72)

     Estimated max dynamical RAM per process >     117.67 MB

     Estimated total dynamical RAM >       1.84 GB

     Initial potential from superposition of free atoms

     starting charge      97.9154, renormalised to      98.0000
     Starting wfcs are  136 randomized atomic wfcs
     Checking if some PAW data can be deallocated... 

     total cpu time spent up to now is        7.9 secs

     per-process dynamical memory:    77.2 Mb

     Self-consistent Calculation

     iteration #  1     ecut=    80.00 Ry     beta= 0.70
     Davidson diagonalization with overlap
     ethr =  1.00E-02,  avg # of iterations =  2.2

     total cpu time spent up to now is       13.2 secs

     total energy              =   -1445.90420712 Ry
     estimated scf accuracy    <       3.82165154 Ry

     iteration #  2     ecut=    80.00 Ry     beta= 0.70
     Davidson diagonalization with overlap
     ethr =  3.90E-03,  avg # of iterations =  6.3

     total cpu time spent up to now is       21.9 secs

     total energy              =   -1441.48651784 Ry
     estimated scf accuracy    <      41.28713405 Ry

     iteration #  3     ecut=    80.00 Ry     beta= 0.70
     Davidson diagonalization with overlap
     ethr =  3.90E-03,  avg # of iterations =  8.4

     total cpu time spent up to now is       30.7 secs

     total energy              =   -1447.64655623 Ry
     estimated scf accuracy    <       3.50043584 Ry

     iteration #  4     ecut=    80.00 Ry     beta= 0.70
     Davidson diagonalization with overlap
     ethr =  3.57E-03,  avg # of iterations =  6.4

     total cpu time spent up to now is       36.8 secs

     total energy              =   -1448.06557347 Ry
     estimated scf accuracy    <       0.84725049 Ry

     iteration #  5     ecut=    80.00 Ry     beta= 0.70
     Davidson diagonalization with overlap
     ethr =  8.65E-04,  avg # of iterations =  4.3

     total cpu time spent up to now is       42.3 secs

     total energy              =   -1448.07046896 Ry
     estimated scf accuracy    <       0.42614173 Ry

     iteration #  6     ecut=    80.00 Ry     beta= 0.70
     Davidson diagonalization with overlap
     ethr =  4.35E-04,  avg # of iterations =  4.3

     total cpu time spent up to now is       47.8 secs

     total energy              =   -1448.07037604 Ry
     estimated scf accuracy    <       0.12443578 Ry

     iteration #  7     ecut=    80.00 Ry     beta= 0.70
     Davidson diagonalization with overlap
     ethr =  1.27E-04,  avg # of iterations =  5.1

     total cpu time spent up to now is       53.6 secs

     total energy              =   -1448.08031397 Ry
     estimated scf accuracy    <       0.01355700 Ry

     iteration #  8     ecut=    80.00 Ry     beta= 0.70
     Davidson diagonalization with overlap
     ethr =  1.38E-05,  avg # of iterations =  5.8

     total cpu time spent up to now is       60.7 secs

     total energy              =   -1448.08336797 Ry
     estimated scf accuracy    <       0.00573046 Ry

     iteration #  9     ecut=    80.00 Ry     beta= 0.70
     Davidson diagonalization with overlap
     ethr =  5.85E-06,  avg # of iterations =  5.9

     total cpu time spent up to now is       67.1 secs

     total energy              =   -1448.08406894 Ry
     estimated scf accuracy    <       0.00132923 Ry

     iteration # 10     ecut=    80.00 Ry     beta= 0.70
     Davidson diagonalization with overlap
     ethr =  1.36E-06,  avg # of iterations =  4.7

     total cpu time spent up to now is       73.2 secs

     total energy              =   -1448.08423719 Ry
     estimated scf accuracy    <       0.00023619 Ry

     iteration # 11     ecut=    80.00 Ry     beta= 0.70
     Davidson diagonalization with overlap
     ethr =  2.41E-07,  avg # of iterations =  6.6

     total cpu time spent up to now is       79.5 secs

     total energy              =   -1448.08427061 Ry
     estimated scf accuracy    <       0.00002335 Ry

     iteration # 12     ecut=    80.00 Ry     beta= 0.70
     Davidson diagonalization with overlap
     c_bands:  1 eigenvalues not converged
     ethr =  2.38E-08,  avg # of iterations =  6.8

     total cpu time spent up to now is       86.3 secs

     total energy              =   -1448.08477287 Ry
     estimated scf accuracy    <       0.00019935 Ry

     iteration # 13     ecut=    80.00 Ry     beta= 0.70
     Davidson diagonalization with overlap
     ethr =  2.38E-08,  avg # of iterations =  3.4

     total cpu time spent up to now is       91.3 secs

     total energy              =   -1448.08477541 Ry
     estimated scf accuracy    <       0.00016970 Ry

     iteration # 14     ecut=    80.00 Ry     beta= 0.70
     Davidson diagonalization with overlap
     ethr =  2.38E-08,  avg # of iterations =  2.0

     total cpu time spent up to now is       95.9 secs

     total energy              =   -1448.08478695 Ry
     estimated scf accuracy    <       0.00017663 Ry

     iteration # 15     ecut=    80.00 Ry     beta= 0.70
     Davidson diagonalization with overlap
     ethr =  2.38E-08,  avg # of iterations =  3.7

     total cpu time spent up to now is      101.0 secs

     total energy              =   -1448.08478397 Ry
     estimated scf accuracy    <       0.00022098 Ry

     iteration # 16     ecut=    80.00 Ry     beta= 0.70
     Davidson diagonalization with overlap
     ethr =  2.38E-08,  avg # of iterations =  1.0

     total cpu time spent up to now is      105.4 secs

     total energy              =   -1448.08477577 Ry
     estimated scf accuracy    <       0.00021173 Ry

     iteration # 17     ecut=    80.00 Ry     beta= 0.70
     Davidson diagonalization with overlap
     ethr =  2.38E-08,  avg # of iterations =  2.5

     total cpu time spent up to now is      110.1 secs

     total energy              =   -1448.08474770 Ry
     estimated scf accuracy    <       0.00018072 Ry

     iteration # 18     ecut=    80.00 Ry     beta= 0.70
     Davidson diagonalization with overlap
     ethr =  2.38E-08,  avg # of iterations =  8.2

     total cpu time spent up to now is      116.5 secs

     total energy              =   -1448.08495967 Ry
     estimated scf accuracy    <       0.00024350 Ry

     iteration # 19     ecut=    80.00 Ry     beta= 0.70
     Davidson diagonalization with overlap
     ethr =  2.38E-08,  avg # of iterations =  1.0

     total cpu time spent up to now is      120.9 secs

     total energy              =   -1448.08494260 Ry
     estimated scf accuracy    <       0.00024315 Ry

     iteration # 20     ecut=    80.00 Ry     beta= 0.70
     Davidson diagonalization with overlap
     ethr =  2.38E-08,  avg # of iterations =  5.9

     total cpu time spent up to now is      126.6 secs

     total energy              =   -1448.08493422 Ry
     estimated scf accuracy    <       0.00014641 Ry

     iteration # 21     ecut=    80.00 Ry     beta= 0.70
     Davidson diagonalization with overlap
     ethr =  2.38E-08,  avg # of iterations =  5.8

     total cpu time spent up to now is      132.2 secs

     total energy              =   -1448.08492819 Ry
     estimated scf accuracy    <       0.00008848 Ry

     iteration # 22     ecut=    80.00 Ry     beta= 0.70
     Davidson diagonalization with overlap
     ethr =  2.38E-08,  avg # of iterations =  4.5

     total cpu time spent up to now is      137.4 secs

     total energy              =   -1448.08492665 Ry
     estimated scf accuracy    <       0.00005592 Ry

     iteration # 23     ecut=    80.00 Ry     beta= 0.70
     Davidson diagonalization with overlap
     ethr =  2.38E-08,  avg # of iterations =  1.2

     total cpu time spent up to now is      141.7 secs

     total energy              =   -1448.08492350 Ry
     estimated scf accuracy    <       0.00004954 Ry

     iteration # 24     ecut=    80.00 Ry     beta= 0.70
     Davidson diagonalization with overlap
     ethr =  2.38E-08,  avg # of iterations =  5.3

     total cpu time spent up to now is      147.1 secs

     total energy              =   -1448.08492222 Ry
     estimated scf accuracy    <       0.00002502 Ry

     iteration # 25     ecut=    80.00 Ry     beta= 0.70
     Davidson diagonalization with overlap
     ethr =  2.38E-08,  avg # of iterations =  2.4

     total cpu time spent up to now is      151.8 secs

     total energy              =   -1448.08492039 Ry
     estimated scf accuracy    <       0.00001787 Ry

     iteration # 26     ecut=    80.00 Ry     beta= 0.70
     Davidson diagonalization with overlap
     ethr =  1.82E-08,  avg # of iterations =  5.3

     total cpu time spent up to now is      157.2 secs

     total energy              =   -1448.08491900 Ry
     estimated scf accuracy    <       0.00000508 Ry

     iteration # 27     ecut=    80.00 Ry     beta= 0.70
     Davidson diagonalization with overlap
     ethr =  5.18E-09,  avg # of iterations =  8.6

     total cpu time spent up to now is      163.8 secs

     total energy              =   -1448.08492065 Ry
     estimated scf accuracy    <       0.00000220 Ry

     iteration # 28     ecut=    80.00 Ry     beta= 0.70
     Davidson diagonalization with overlap
     ethr =  2.25E-09,  avg # of iterations =  1.1

     total cpu time spent up to now is      168.2 secs

     total energy              =   -1448.08492038 Ry
     estimated scf accuracy    <       0.00000188 Ry

     iteration # 29     ecut=    80.00 Ry     beta= 0.70
     Davidson diagonalization with overlap
     ethr =  1.92E-09,  avg # of iterations =  5.7

     total cpu time spent up to now is      173.8 secs

     total energy              =   -1448.08492044 Ry
     estimated scf accuracy    <       0.00000029 Ry

     iteration # 30     ecut=    80.00 Ry     beta= 0.70
     Davidson diagonalization with overlap
     ethr =  2.99E-10,  avg # of iterations =  6.7

     total cpu time spent up to now is      179.7 secs

     total energy              =   -1448.08492048 Ry
     estimated scf accuracy    <       0.00000008 Ry

     iteration # 31     ecut=    80.00 Ry     beta= 0.70
     Davidson diagonalization with overlap
     ethr =  7.70E-11,  avg # of iterations =  7.1

     total cpu time spent up to now is      185.9 secs

     total energy              =   -1448.08492047 Ry
     estimated scf accuracy    <       0.00000023 Ry

     iteration # 32     ecut=    80.00 Ry     beta= 0.70
     Davidson diagonalization with overlap
     ethr =  7.70E-11,  avg # of iterations =  3.9

     total cpu time spent up to now is      190.9 secs

     total energy              =   -1448.08492045 Ry
     estimated scf accuracy    <       0.00000014 Ry

     iteration # 33     ecut=    80.00 Ry     beta= 0.70
     Davidson diagonalization with overlap
     ethr =  7.70E-11,  avg # of iterations =  6.5

     total cpu time spent up to now is      196.7 secs

     total energy              =   -1448.08492045 Ry
     estimated scf accuracy    <       0.00000003 Ry

     iteration # 34     ecut=    80.00 Ry     beta= 0.70
     Davidson diagonalization with overlap
     ethr =  3.44E-11,  avg # of iterations =  7.1

     total cpu time spent up to now is      202.6 secs

     total energy              =   -1448.08492045 Ry
     estimated scf accuracy    <          4.0E-09 Ry

     iteration # 35     ecut=    80.00 Ry     beta= 0.70
     Davidson diagonalization with overlap
     ethr =  4.09E-12,  avg # of iterations =  8.3

     total cpu time spent up to now is      209.2 secs

     total energy              =   -1448.08492045 Ry
     estimated scf accuracy    <          1.8E-10 Ry

     iteration # 36     ecut=    80.00 Ry     beta= 0.70
     Davidson diagonalization with overlap
     ethr =  1.81E-13,  avg # of iterations =  6.4

     total cpu time spent up to now is      216.3 secs

     End of self-consistent calculation

          k = 0.0000 0.0000 0.0000 ( 17077 PWs)   bands (ev):

   -41.1203 -29.7888 -23.7593 -23.7593 -23.7401 -20.1886 -19.4267 -19.4267
   -17.8639 -17.8639 -17.8176 -14.4873 -14.4873 -14.3500 -14.3500 -14.2126
   -11.6940 -11.6940  -8.7304  -7.9852  -7.6392  -7.6392  -7.1639  -7.1639
    -7.0508  -7.0398  -7.0343  -7.0343  -4.4445  -4.4445  -4.3471  -1.4175
    -0.1305  -0.1305   1.1235   1.1235   1.8146   3.1073   3.1073   3.6098
     3.6098   3.9950   4.3701   5.5955   5.5955   6.4146   6.6506   8.0689
     8.5791

          k = 0.0000 0.0000 0.2000 ( 17216 PWs)   bands (ev):

   -41.1203 -29.7887 -23.7633 -23.7593 -23.7360 -20.1897 -19.4274 -19.4271
   -17.8653 -17.8632 -17.8176 -14.4897 -14.4871 -14.3503 -14.3498 -14.2117
   -11.6898 -11.6747  -8.7482  -7.9306  -7.6572  -7.6479  -7.1584  -7.1485
    -7.0567  -7.0427  -7.0353  -7.0330  -4.5646  -4.4378  -4.3763  -1.4185
    -0.1363  -0.1339   1.1297   1.3083   1.7874   3.1175   3.1369   3.5686
     3.6255   4.1446   4.3793   5.5486   5.5566   6.3895   6.7357   8.0275
     8.4373

          k = 0.0000 0.0000 0.4000 ( 17180 PWs)   bands (ev):

   -41.1203 -29.7887 -23.7680 -23.7591 -23.7312 -20.1914 -19.4286 -19.4277
   -17.8678 -17.8621 -17.8174 -14.4935 -14.4868 -14.3509 -14.3494 -14.2102
   -11.6831 -11.6433  -8.7713  -7.8273  -7.7062  -7.6619  -7.1485  -7.1153
    -7.0706  -7.0509  -7.0345  -7.0314  -4.7815  -4.4270  -4.3931  -1.4206
    -0.1455  -0.1387   1.1397   1.5879   1.7581   3.1343   3.2049   3.5233
     3.6475   4.3360   4.4014   5.4865   5.4915   6.3475   6.9315   7.9310
     8.2662

          k = 0.0000 0.2000 0.2000 ( 17165 PWs)   bands (ev):

   -41.1203 -29.7887 -23.7625 -23.7613 -23.7346 -20.1910 -19.4279 -19.4277
   -17.8657 -17.8634 -17.8174 -14.4919 -14.4876 -14.3504 -14.3498 -14.2105
   -11.6760 -11.6628  -8.7745  -7.8712  -7.6744  -7.6484  -7.1532  -7.1317
    -7.0672  -7.0458  -7.0394  -7.0349  -4.5723  -4.5370  -4.4056  -1.4184
    -0.1466  -0.1395   1.2198   1.4067   1.7472   3.1462   3.1662   3.5934
     3.6070   4.2710   4.3955   5.4826   5.5046   6.3629   6.8635   8.0315
     8.3856

          k = 0.0000 0.2000 0.4000 ( 17221 PWs)   bands (ev):

   -41.1203 -29.7886 -23.7667 -23.7610 -23.7304 -20.1922 -19.4291 -19.4284
   -17.8678 -17.8631 -17.8178 -14.4927 -14.4875 -14.3509 -14.3497 -14.2101
   -11.6716 -11.6339  -8.7668  -7.8102  -7.7098  -7.6598  -7.1482  -7.1027
    -7.0808  -7.0548  -7.0403  -7.0301  -4.7705  -4.5459  -4.4094  -1.4300
    -0.1622  -0.1451   1.2592   1.6608   1.7783   3.1527   3.2249   3.5471
     3.6526   4.3547   4.4209   5.3977   5.4672   6.3170   7.0791   8.0666
     8.2523

          k = 0.0000 0.4000 0.4000 ( 17238 PWs)   bands (ev):

   -41.1203 -29.7885 -23.7657 -23.7644 -23.7280 -20.1929 -19.4300 -19.4294
   -17.8687 -17.8641 -17.8189 -14.4894 -14.4882 -14.3510 -14.3502 -14.2108
   -11.6661 -11.6110  -8.7300  -7.8076  -7.7120  -7.6658  -7.1471  -7.1016
    -7.0804  -7.0548  -7.0538  -7.0226  -4.7545  -4.7497  -4.4122  -1.4520
    -0.1891  -0.1517   1.3688   1.8537   1.8701   3.1503   3.2694   3.5326
     3.7061   4.3161   4.4554   5.2773   5.4423   6.2658   7.3291   8.1896
     8.3969

          k = 0.2000 0.2000 0.2000 ( 17245 PWs)   bands (ev):

   -41.1203 -29.7886 -23.7612 -23.7612 -23.7357 -20.1926 -19.4283 -19.4283
   -17.8649 -17.8649 -17.8170 -14.4916 -14.4916 -14.3501 -14.3501 -14.2091
   -11.6551 -11.6551  -8.8102  -7.8140  -7.6603  -7.6603  -7.1244  -7.1244
    -7.0892  -7.0596  -7.0596  -7.0243  -4.5576  -4.5576  -4.5315  -1.4218
    -0.1543  -0.1543   1.4066   1.4066   1.7117   3.1993   3.1993   3.6047
     3.6047   4.3737   4.4176   5.4261   5.4261   6.3353   6.9783   8.1139
     8.4144

          k = 0.2000 0.2000 0.4000 ( 17227 PWs)   bands (ev):

   -41.1203 -29.7886 -23.7653 -23.7611 -23.7316 -20.1932 -19.4295 -19.4290
   -17.8674 -17.8644 -17.8180 -14.4914 -14.4896 -14.3507 -14.3500 -14.2097
   -11.6557 -11.6258  -8.7779  -7.7897  -7.6879  -7.6617  -7.1210  -7.1143
    -7.0829  -7.0763  -7.0629  -7.0172  -4.7599  -4.5540  -4.5330  -1.4453
    -0.1737  -0.1627   1.4189   1.6868   1.7990   3.1969   3.2542   3.5627
     3.6658   4.3755   4.4449   5.3394   5.4043   6.2854   7.1716   8.1969
     8.3212

          k = 0.2000 0.4000 0.4000 ( 17203 PWs)   bands (ev):

   -41.1203 -29.7885 -23.7643 -23.7639 -23.7297 -20.1933 -19.4304 -19.4300
   -17.8684 -17.8658 -17.8197 -14.4882 -14.4878 -14.3510 -14.3506 -14.2114
   -11.6467 -11.6107  -8.7174  -7.8219  -7.6738  -7.6648  -7.1531  -7.0977
    -7.0858  -7.0760  -7.0659  -7.0095  -4.7473  -4.7418  -4.5385  -1.4794
    -0.1996  -0.1769   1.5626   1.8706   1.8918   3.2013   3.2823   3.5875
     3.7124   4.3072   4.4804   5.2646   5.3728   6.2290   7.4005   8.1752
     8.3368

          k = 0.4000 0.4000 0.4000 ( 17229 PWs)   bands (ev):

   -41.1203 -29.7884 -23.7641 -23.7641 -23.7298 -20.1927 -19.4311 -19.4311
   -17.8686 -17.8686 -17.8221 -14.4841 -14.4841 -14.3513 -14.3513 -14.2141
   -11.6185 -11.6185  -8.6218  -7.8996  -7.6513  -7.6513  -7.1888  -7.1095
    -7.1095  -7.0575  -7.0575  -6.9991  -4.7482  -4.7482  -4.6957  -1.5285
    -0.2140  -0.2140   1.8790   1.8790   2.0011   3.2581   3.2581   3.7118
     3.7118   4.2322   4.5213   5.2806   5.2806   6.1651   7.6378   8.2553
     8.2553

          k =-0.2000 0.0000 0.2000 ( 17165 PWs)   bands (ev):

   -41.1203 -29.7887 -23.7664 -23.7600 -23.7321 -20.1900 -19.4280 -19.4276
   -17.8656 -17.8640 -17.8183 -14.4885 -14.4873 -14.3504 -14.3501 -14.2120
   -11.6847 -11.6627  -8.7264  -7.9180  -7.6836  -7.6452  -7.1515  -7.1470
    -7.0553  -7.0495  -7.0320  -7.0272  -4.5802  -4.5353  -4.3986  -1.4299
    -0.1447  -0.1376   1.2274   1.4058   1.8366   3.1126   3.1457   3.5371
     3.6505   4.1860   4.3865   5.5056   5.5442   6.3613   6.8013   8.0583
     8.3343

          k =-0.2000 0.0000 0.4000 ( 17221 PWs)   bands (ev):

   -41.1203 -29.7886 -23.7686 -23.7606 -23.7291 -20.1916 -19.4291 -19.4284
   -17.8678 -17.8634 -17.8184 -14.4908 -14.4871 -14.3509 -14.3499 -14.2110
   -11.6766 -11.6342  -8.7385  -7.8384  -7.7171  -7.6556  -7.1473  -7.1212
    -7.0649  -7.0567  -7.0353  -7.0258  -4.7715  -4.5458  -4.4077  -1.4370
    -0.1611  -0.1440   1.2629   1.6626   1.8317   3.1305   3.2115   3.5181
     3.6756   4.3023   4.4151   5.4156   5.4873   6.3160   7.0271   8.0354
     8.2825

          k =-0.4000 0.0000 0.4000 ( 17238 PWs)   bands (ev):

   -41.1203 -29.7885 -23.7679 -23.7629 -23.7273 -20.1925 -19.4300 -19.4294
   -17.8686 -17.8643 -17.8193 -14.4887 -14.4875 -14.3510 -14.3504 -14.2114
   -11.6694 -11.6109  -8.7119  -7.8223  -7.7215  -7.6618  -7.1443  -7.1183
    -7.0668  -7.0605  -7.0470  -7.0199  -4.7636  -4.7400  -4.4120  -1.4563
    -0.1884  -0.1510   1.3706   1.8607   1.9010   3.1310   3.2629   3.5105
     3.7235   4.2871   4.4518   5.2886   5.4515   6.2652   7.2888   8.1592
     8.2793

          k = 0.2000-0.2000 0.2000 ( 17245 PWs)   bands (ev):

   -41.1203 -29.7886 -23.7669 -23.7612 -23.7304 -20.1907 -19.4284 -19.4283
   -17.8658 -17.8650 -17.8188 -14.4902 -14.4851 -14.3506 -14.3503 -14.2120
   -11.6682 -11.6597  -8.7163  -7.8986  -7.6995  -7.6425  -7.1627  -7.1296
    -7.0575  -7.0517  -7.0363  -7.0229  -4.5778  -4.5691  -4.4960  -1.4393
    -0.1513  -0.1503   1.4069   1.4192   1.8503   3.1391   3.1443   3.5667
     3.6505   4.2362   4.4006   5.4656   5.4996   6.3310   6.9215   8.0809
     8.2825

          k = 0.2000-0.2000 0.4000 ( 17227 PWs)   bands (ev):

   -41.1203 -29.7885 -23.7680 -23.7623 -23.7279 -20.1916 -19.4295 -19.4291
   -17.8682 -17.8645 -17.8195 -14.4902 -14.4844 -14.3511 -14.3503 -14.2120
   -11.6607 -11.6356  -8.6966  -7.8750  -7.7064  -7.6496  -7.1719  -7.1054
    -7.0696  -7.0483  -7.0415  -7.0215  -4.7639  -4.5601  -4.5182  -1.4547
    -0.1726  -0.1589   1.4184   1.7103   1.8713   3.1425   3.2069   3.5930
     3.6640   4.2879   4.4321   5.4062   5.4324   6.2808   7.1924   8.1195
     8.2168

          k =-0.4000 0.2000 0.2000 ( 17227 PWs)   bands (ev):

   -41.1203 -29.7885 -23.7683 -23.7610 -23.7289 -20.1920 -19.4296 -19.4290
   -17.8674 -17.8650 -17.8192 -14.4888 -14.4874 -14.3508 -14.3503 -14.2115
   -11.6638 -11.6287  -8.7194  -7.8444  -7.7104  -7.6506  -7.1494  -7.1196
    -7.0702  -7.0613  -7.0459  -7.0156  -4.7596  -4.5665  -4.5178  -1.4560
    -0.1712  -0.1609   1.4267   1.6880   1.8868   3.1617   3.2114   3.5371
     3.6966   4.2948   4.4342   5.3639   5.4475   6.2829   7.1252   8.1278
     8.2544

          k = 0.4000-0.2000 0.4000 ( 17203 PWs)   bands (ev):

   -41.1203 -29.7885 -23.7668 -23.7643 -23.7271 -20.1921 -19.4304 -19.4301
   -17.8690 -17.8658 -17.8209 -14.4867 -14.4842 -14.3513 -14.3508 -14.2130
   -11.6500 -11.6189  -8.6451  -7.9064  -7.6824  -7.6530  -7.1833  -7.0996
    -7.0826  -7.0499  -7.0441  -7.0151  -4.7598  -4.7318  -4.5316  -1.4844
    -0.1987  -0.1744   1.5645   1.8783   1.9450   3.1635   3.2383   3.6228
     3.7059   4.2551   4.4711   5.3087   5.3972   6.2252   7.4714   8.2342
     8.3680

          k =-0.4000 0.2000 0.4000 ( 17203 PWs)   bands (ev):

   -41.1203 -29.7885 -23.7673 -23.7632 -23.7276 -20.1923 -19.4305 -19.4300
   -17.8687 -17.8660 -17.8206 -14.4873 -14.4846 -14.3512 -14.3508 -14.2128
   -11.6518 -11.6148  -8.6619  -7.8820  -7.6894  -7.6518  -7.1742  -7.1039
    -7.0800  -7.0621  -7.0463  -7.0108  -4.7565  -4.7334  -4.5345  -1.4851
    -0.1983  -0.1752   1.5658   1.8676   1.9560   3.1663   3.2478   3.5871
     3.7291   4.2595   4.4721   5.2916   5.3988   6.2262   7.4111   8.1696
     8.3020

          k = 0.4000-0.4000 0.4000 ( 17229 PWs)   bands (ev):

   -41.1203 -29.7884 -23.7659 -23.7641 -23.7281 -20.1920 -19.4312 -19.4311
   -17.8689 -17.8686 -17.8228 -14.4834 -14.4816 -14.3515 -14.3514 -14.2151
   -11.6236 -11.6206  -8.5652  -7.9639  -7.6577  -7.6439  -7.2013  -7.1138
    -7.1015  -7.0507  -7.0450  -7.0002  -4.7560  -4.7514  -4.6819  -1.5315
    -0.2135  -0.2124   1.8737   1.8837   2.0448   3.2289   3.2329   3.7059
     3.7338   4.2060   4.5148   5.2921   5.3064   6.1624   7.6815   8.2934
     8.3851

     highest occupied level (ev):     8.5791

!    total energy              =   -1448.08492045 Ry
     total all-electron energy =     -1448.084920 Ry
     estimated scf accuracy    <          9.7E-11 Ry

     The total energy is the sum of the following terms:
     one-electron contribution =    -458.29625713 Ry
     hartree contribution      =     298.19444227 Ry
     xc contribution           =    -121.68680762 Ry
     ewald contribution        =    -342.76060903 Ry
     one-center paw contrib.   =    -823.53568895 Ry

     convergence has been achieved in  36 iterations

     Forces acting on atoms (cartesian axes, Ry/au):

     atom    1 type  1   force =     0.02773921    0.02773921    0.02773921
     atom    2 type  1   force =     0.03468147    0.03468147   -0.02825852
     atom    3 type  1   force =     0.03468147   -0.02825852    0.03468147
     atom    4 type  1   force =    -0.02825852    0.03468147    0.03468147
     atom    5 type  3   force =     0.01511479    0.01511479    0.01511479
     atom    6 type  2   force =     0.05132426    0.05132426    0.05132426
     atom    7 type  4   force =     0.62926116   -0.02561136   -0.02561136
     atom    8 type  4   force =    -0.67739406   -0.01796354   -0.01796354
     atom    9 type  4   force =    -0.02561136    0.62926116   -0.02561136
     atom   10 type  4   force =    -0.01796354   -0.67739406   -0.01796354
     atom   11 type  4   force =    -0.02561136   -0.02561136    0.62926116
     atom   12 type  4   force =    -0.01796354   -0.01796354   -0.67739406

     Total force =     1.609620     Total SCF correction =     0.000037


     Computing stress (Cartesian axis) and pressure

          total   stress  (Ry/bohr**3)                   (kbar)     P=      495.87
   0.00337084  -0.00008915  -0.00008915          495.87      -13.11      -13.11
  -0.00008915   0.00337084  -0.00008915          -13.11      495.87      -13.11
  -0.00008915  -0.00008915   0.00337084          -13.11      -13.11      495.87


     Writing all to output data dir ./K4SnZrO6.save/

     init_run     :      6.31s CPU      6.71s WALL (       1 calls)
     electrons    :    194.21s CPU    208.50s WALL (       1 calls)
     forces       :      1.41s CPU      1.46s WALL (       1 calls)
     stress       :      4.54s CPU      4.68s WALL (       1 calls)

     Called by init_run:
     wfcinit      :      3.49s CPU      3.78s WALL (       1 calls)
     potinit      :      1.18s CPU      1.20s WALL (       1 calls)
     hinit0       :      1.40s CPU      1.41s WALL (       1 calls)

     Called by electrons:
     c_bands      :    142.84s CPU    151.80s WALL (      36 calls)
     sum_band     :     25.70s CPU     29.11s WALL (      36 calls)
     v_of_rho     :      1.86s CPU      1.92s WALL (      37 calls)
     newd         :      5.49s CPU      7.10s WALL (      37 calls)
     PAW_pot      :     18.55s CPU     18.70s WALL (      37 calls)
     mix_rho      :      0.29s CPU      0.31s WALL (      36 calls)

     Called by c_bands:
     init_us_2    :      1.78s CPU      1.84s WALL (    1425 calls)
     init_us_2:cp :      1.77s CPU      1.84s WALL (    1425 calls)
     cegterg      :    136.82s CPU    145.66s WALL (     684 calls)

     Called by *egterg:
     cdiaghg      :     33.39s CPU     33.85s WALL (    4108 calls)
     h_psi        :     80.14s CPU     88.40s WALL (    4127 calls)
     s_psi        :      6.82s CPU      6.89s WALL (    4127 calls)
     g_psi        :      0.94s CPU      0.95s WALL (    3424 calls)

     Called by h_psi:
     h_psi:calbec :      7.46s CPU      7.82s WALL (    4127 calls)
     vloc_psi     :     65.31s CPU     73.11s WALL (    4127 calls)
     add_vuspsi   :      6.96s CPU      7.05s WALL (    4127 calls)

     General routines
     calbec       :     10.30s CPU     10.77s WALL (    4906 calls)
     fft          :      1.12s CPU      1.20s WALL (     504 calls)
     ffts         :      0.36s CPU      0.37s WALL (      73 calls)
     fftw         :     71.13s CPU     79.67s WALL (  194394 calls)
     interpolate  :      0.41s CPU      0.42s WALL (      37 calls)

     Parallel routines

     PWSCF        :   3m27.80s CPU   3m45.51s WALL


   This run was terminated on:   3:48:30  30Nov2025            

=------------------------------------------------------------------------------=
   JOB DONE.
=------------------------------------------------------------------------------=
