
     Program PWSCF v.7.1 starts on 30Nov2025 at  3: 1:43 

     This program is part of the open-source Quantum ESPRESSO suite
     for quantum simulation of materials; please cite
         "P. Giannozzi et al., J. Phys.:Condens. Matter 21 395502 (2009);
         "P. Giannozzi et al., J. Phys.:Condens. Matter 29 465901 (2017);
         "P. Giannozzi et al., J. Chem. Phys. 152 154105 (2020);
          URL http://www.quantum-espresso.org", 
     in publications or presentations arising from this work. More details at
     http://www.quantum-espresso.org/quote

     Parallel version (MPI & OpenMP), running on      16 processor cores
     Number of MPI processes:                16
     Threads/MPI process:                     1

     MPI processes distributed on     1 nodes
     46649 MiB available memory on the printing compute node when the environment starts

     Waiting for input...
     Reading input from standard input

     Current dimensions of program PWSCF are:
     Max number of different atomic species (ntypx) = 10
     Max number of k-points (npk) =  40000
     Max angular momentum in pseudopotentials (lmaxx) =  4
     Message from routine read_pp_mesh:
     mismatch in mesh size, discarding the one in header
     Message from routine read_pp_mesh:
     mismatch in mesh size, discarding the one in header
     Message from routine read_pp_mesh:
     mismatch in mesh size, discarding the one in header
     Message from routine read_pp_mesh:
     mismatch in mesh size, discarding the one in header
     Message from routine setup:
     using ibrav=0 with symmetry is DISCOURAGED, use correct ibrav instead

     R & G space division:  proc/nbgrp/npool/nimage =      16
     Subspace diagonalization in iterative solution of the eigenvalue problem:
     a serial algorithm will be used


     Parallelization info
     --------------------
     sticks:   dense  smooth     PW     G-vecs:    dense   smooth      PW
     Min         302     151     41                15818     5573     813
     Max         304     152     43                15821     5577     816
     Sum        4849    2417    673               253119    89199   13037

     Using Slab Decomposition



     bravais-lattice index     =            0
     lattice parameter (alat)  =      11.2511  a.u.
     unit-cell volume          =    1424.2554 (a.u.)^3
     number of atoms/cell      =           12
     number of atomic types    =            4
     number of electrons       =        98.00
     number of Kohn-Sham states=           49
     kinetic-energy cutoff     =      60.0000  Ry
     charge density cutoff     =     480.0000  Ry
     scf convergence threshold =      1.0E-10
     mixing beta               =       0.7000
     number of iterations used =            8  plain     mixing
     Exchange-correlation= SLA PW PBX PBC
                           (   1   4   3   4   0   0   0)

     celldm(1)=  11.251125  celldm(2)=   0.000000  celldm(3)=   0.000000
     celldm(4)=   0.000000  celldm(5)=   0.000000  celldm(6)=   0.000000

     crystal axes: (cart. coord. in units of alat)
               a(1) = (   1.000000   0.000000   0.000000 )  
               a(2) = (   0.000000   1.000000   0.000000 )  
               a(3) = (   0.000000   0.000000   1.000000 )  

     reciprocal axes: (cart. coord. in units 2 pi/alat)
               b(1) = (  1.000000  0.000000  0.000000 )  
               b(2) = (  0.000000  1.000000  0.000000 )  
               b(3) = (  0.000000  0.000000  1.000000 )  


     PseudoPot. # 1 for K  read from file:
     ./K.upf
     MD5 check sum: 9356cfae17991a8ac93a0af773ad5d28
     Pseudo is Projector augmented-wave + core cor, Zval =  9.0
     Generated using ATOMPAW code
     Shape of augmentation charge: SINC**2
     Using radial grid of 2342 points,  5 beta functions with: 
                l(1) =   0
                l(2) =   0
                l(3) =   1
                l(4) =   1
                l(5) =   2
     Q(r) pseudized with 0 coefficients 


     PseudoPot. # 2 for Zr read from file:
     ./Zr.upf
     MD5 check sum: 10be9e9715c592225794718718b87d8f
     Pseudo is Projector augmented-wave + core cor, Zval = 12.0
     Generated using ATOMPAW code
     Shape of augmentation charge: BESSEL
     Using radial grid of 2342 points,  6 beta functions with: 
                l(1) =   0
                l(2) =   0
                l(3) =   1
                l(4) =   1
                l(5) =   2
                l(6) =   2
     Q(r) pseudized with 0 coefficients 


     PseudoPot. # 3 for Sn read from file:
     ./Sn.upf
     MD5 check sum: f8d5c2bd65c7f969f3af92fc3a9f2821
     Pseudo is Projector augmented-wave + core cor, Zval = 14.0
     Generated using ATOMPAW code
     Shape of augmentation charge: BESSEL
     Using radial grid of 2342 points,  6 beta functions with: 
                l(1) =   0
                l(2) =   0
                l(3) =   1
                l(4) =   1
                l(5) =   2
                l(6) =   2
     Q(r) pseudized with 0 coefficients 


     PseudoPot. # 4 for O  read from file:
     ./O.upf
     MD5 check sum: 45fbb1c0d1f8837f1e386a2947d3aa26
     Pseudo is Projector augmented-wave + core cor, Zval =  6.0
     Generated using ATOMPAW code
     Shape of augmentation charge: SINC**2
     Using radial grid of 2342 points,  4 beta functions with: 
                l(1) =   0
                l(2) =   0
                l(3) =   1
                l(4) =   1
     Q(r) pseudized with 0 coefficients 


     atomic species   valence    mass     pseudopotential
        K              9.00    39.09800     K ( 1.00)
        Zr            12.00    91.22400     Zr( 1.00)
        Sn            14.00   118.71000     Sn( 1.00)
        O              6.00    15.99900     O ( 1.00)

      6 Sym. Ops. (no inversion) found



   Cartesian axes

     site n.     atom                  positions (alat units)
         1           K   tau(   1) = (   0.0000000   0.0000000   0.0000000  )
         2           K   tau(   2) = (   0.5000000   0.5000000   0.0000000  )
         3           K   tau(   3) = (   0.5000000   0.0000000   0.5000000  )
         4           K   tau(   4) = (   0.0000000   0.5000000   0.5000000  )
         5           Sn  tau(   5) = (   0.2500000   0.2500000   0.2500000  )
         6           Zr  tau(   6) = (   0.7500000   0.7500000   0.7500000  )
         7           O   tau(   7) = (   0.2500000   0.0000000   0.0000000  )
         8           O   tau(   8) = (   0.7500000   0.0000000   0.0000000  )
         9           O   tau(   9) = (   0.0000000   0.2500000   0.0000000  )
        10           O   tau(  10) = (   0.0000000   0.7500000   0.0000000  )
        11           O   tau(  11) = (   0.0000000   0.0000000   0.2500000  )
        12           O   tau(  12) = (   0.0000000   0.0000000   0.7500000  )

     number of k points=    19
                       cart. coord. in units 2pi/alat
        k(    1) = (   0.0000000   0.0000000   0.0000000), wk =   0.0160000
        k(    2) = (   0.0000000   0.0000000   0.2000000), wk =   0.0960000
        k(    3) = (   0.0000000   0.0000000   0.4000000), wk =   0.0960000
        k(    4) = (   0.0000000   0.2000000   0.2000000), wk =   0.0960000
        k(    5) = (   0.0000000   0.2000000   0.4000000), wk =   0.1920000
        k(    6) = (   0.0000000   0.4000000   0.4000000), wk =   0.0960000
        k(    7) = (   0.2000000   0.2000000   0.2000000), wk =   0.0320000
        k(    8) = (   0.2000000   0.2000000   0.4000000), wk =   0.0960000
        k(    9) = (   0.2000000   0.4000000   0.4000000), wk =   0.0960000
        k(   10) = (   0.4000000   0.4000000   0.4000000), wk =   0.0320000
        k(   11) = (  -0.2000000   0.0000000   0.2000000), wk =   0.0960000
        k(   12) = (  -0.2000000   0.0000000   0.4000000), wk =   0.1920000
        k(   13) = (  -0.4000000   0.0000000   0.4000000), wk =   0.0960000
        k(   14) = (   0.2000000  -0.2000000   0.2000000), wk =   0.0960000
        k(   15) = (   0.2000000  -0.2000000   0.4000000), wk =   0.1920000
        k(   16) = (  -0.4000000   0.2000000   0.2000000), wk =   0.0960000
        k(   17) = (   0.4000000  -0.2000000   0.4000000), wk =   0.0960000
        k(   18) = (  -0.4000000   0.2000000   0.4000000), wk =   0.1920000
        k(   19) = (   0.4000000  -0.4000000   0.4000000), wk =   0.0960000

     Dense  grid:   253119 G-vectors     FFT dimensions: (  80,  80,  80)

     Smooth grid:    89199 G-vectors     FFT dimensions: (  60,  60,  60)

     Estimated max dynamical RAM per process >      77.96 MB

     Estimated total dynamical RAM >       1.22 GB

     Check: negative core charge=   -0.000001

     Initial potential from superposition of free atoms

     starting charge      97.9154, renormalised to      98.0000
     Starting wfcs are  136 randomized atomic wfcs
     Checking if some PAW data can be deallocated... 

     total cpu time spent up to now is        5.9 secs

     per-process dynamical memory:    63.6 Mb

     Self-consistent Calculation

     iteration #  1     ecut=    60.00 Ry     beta= 0.70
     Davidson diagonalization with overlap
     ethr =  1.00E-02,  avg # of iterations =  2.1

     total cpu time spent up to now is        9.1 secs

     total energy              =   -1445.90739869 Ry
     estimated scf accuracy    <       3.81049961 Ry

     iteration #  2     ecut=    60.00 Ry     beta= 0.70
     Davidson diagonalization with overlap
     ethr =  3.89E-03,  avg # of iterations =  6.3

     total cpu time spent up to now is       14.9 secs

     total energy              =   -1441.54073937 Ry
     estimated scf accuracy    <      40.94697631 Ry

     iteration #  3     ecut=    60.00 Ry     beta= 0.70
     Davidson diagonalization with overlap
     ethr =  3.89E-03,  avg # of iterations =  8.4

     total cpu time spent up to now is       20.9 secs

     total energy              =   -1447.64121255 Ry
     estimated scf accuracy    <       3.50053409 Ry

     iteration #  4     ecut=    60.00 Ry     beta= 0.70
     Davidson diagonalization with overlap
     ethr =  3.57E-03,  avg # of iterations =  6.9

     total cpu time spent up to now is       25.1 secs

     total energy              =   -1448.07293662 Ry
     estimated scf accuracy    <       0.86119345 Ry

     iteration #  5     ecut=    60.00 Ry     beta= 0.70
     Davidson diagonalization with overlap
     ethr =  8.79E-04,  avg # of iterations =  3.8

     total cpu time spent up to now is       28.6 secs

     total energy              =   -1448.06483365 Ry
     estimated scf accuracy    <       0.42026642 Ry

     iteration #  6     ecut=    60.00 Ry     beta= 0.70
     Davidson diagonalization with overlap
     ethr =  4.29E-04,  avg # of iterations =  4.1

     total cpu time spent up to now is       32.0 secs

     total energy              =   -1448.06398308 Ry
     estimated scf accuracy    <       0.12233808 Ry

     iteration #  7     ecut=    60.00 Ry     beta= 0.70
     Davidson diagonalization with overlap
     ethr =  1.25E-04,  avg # of iterations =  5.2

     total cpu time spent up to now is       36.0 secs

     total energy              =   -1448.07629766 Ry
     estimated scf accuracy    <       0.00841323 Ry

     iteration #  8     ecut=    60.00 Ry     beta= 0.70
     Davidson diagonalization with overlap
     ethr =  8.58E-06,  avg # of iterations =  5.8

     total cpu time spent up to now is       40.8 secs

     total energy              =   -1448.07844220 Ry
     estimated scf accuracy    <       0.00331081 Ry

     iteration #  9     ecut=    60.00 Ry     beta= 0.70
     Davidson diagonalization with overlap
     ethr =  3.38E-06,  avg # of iterations =  6.6

     total cpu time spent up to now is       45.4 secs

     total energy              =   -1448.07905058 Ry
     estimated scf accuracy    <       0.00293607 Ry

     iteration # 10     ecut=    60.00 Ry     beta= 0.70
     Davidson diagonalization with overlap
     ethr =  3.00E-06,  avg # of iterations =  4.6

     total cpu time spent up to now is       48.9 secs

     total energy              =   -1448.07911253 Ry
     estimated scf accuracy    <       0.00057084 Ry

     iteration # 11     ecut=    60.00 Ry     beta= 0.70
     Davidson diagonalization with overlap
     ethr =  5.82E-07,  avg # of iterations =  6.9

     total cpu time spent up to now is       53.1 secs

     total energy              =   -1448.07916104 Ry
     estimated scf accuracy    <       0.00006019 Ry

     iteration # 12     ecut=    60.00 Ry     beta= 0.70
     Davidson diagonalization with overlap
     ethr =  6.14E-08,  avg # of iterations =  6.1

     total cpu time spent up to now is       57.4 secs

     total energy              =   -1448.07917151 Ry
     estimated scf accuracy    <       0.00000407 Ry

     iteration # 13     ecut=    60.00 Ry     beta= 0.70
     Davidson diagonalization with overlap
     ethr =  4.15E-09,  avg # of iterations =  6.7

     total cpu time spent up to now is       63.2 secs

     total energy              =   -1448.07979609 Ry
     estimated scf accuracy    <       0.00026591 Ry

     iteration # 14     ecut=    60.00 Ry     beta= 0.70
     Davidson diagonalization with overlap
     ethr =  4.15E-09,  avg # of iterations =  7.8

     total cpu time spent up to now is       67.6 secs

     total energy              =   -1448.07980581 Ry
     estimated scf accuracy    <       0.00020683 Ry

     iteration # 15     ecut=    60.00 Ry     beta= 0.70
     Davidson diagonalization with overlap
     ethr =  4.15E-09,  avg # of iterations =  6.7

     total cpu time spent up to now is       71.5 secs

     total energy              =   -1448.07976403 Ry
     estimated scf accuracy    <       0.00025089 Ry

     iteration # 16     ecut=    60.00 Ry     beta= 0.70
     Davidson diagonalization with overlap
     ethr =  4.15E-09,  avg # of iterations =  9.1

     total cpu time spent up to now is       77.4 secs

     total energy              =   -1448.07975873 Ry
     estimated scf accuracy    <       0.00006765 Ry

     iteration # 17     ecut=    60.00 Ry     beta= 0.70
     Davidson diagonalization with overlap
     ethr =  4.15E-09,  avg # of iterations =  8.9

     total cpu time spent up to now is       82.3 secs

     total energy              =   -1448.07975847 Ry
     estimated scf accuracy    <       0.00001337 Ry

     iteration # 18     ecut=    60.00 Ry     beta= 0.70
     Davidson diagonalization with overlap
     ethr =  4.15E-09,  avg # of iterations =  8.3

     total cpu time spent up to now is       86.7 secs

     total energy              =   -1448.07975871 Ry
     estimated scf accuracy    <       0.00000172 Ry

     iteration # 19     ecut=    60.00 Ry     beta= 0.70
     Davidson diagonalization with overlap
     ethr =  1.75E-09,  avg # of iterations =  8.3

     total cpu time spent up to now is       91.1 secs

     total energy              =   -1448.07975894 Ry
     estimated scf accuracy    <          8.4E-09 Ry

     iteration # 20     ecut=    60.00 Ry     beta= 0.70
     Davidson diagonalization with overlap
     ethr =  8.57E-12,  avg # of iterations =  8.2

     total cpu time spent up to now is       97.1 secs

     total energy              =   -1448.07975896 Ry
     estimated scf accuracy    <       0.00000001 Ry

     iteration # 21     ecut=    60.00 Ry     beta= 0.70
     Davidson diagonalization with overlap
     ethr =  8.57E-12,  avg # of iterations =  8.6

     total cpu time spent up to now is      102.9 secs

     total energy              =   -1448.07975896 Ry
     estimated scf accuracy    <       0.00000010 Ry

     iteration # 22     ecut=    60.00 Ry     beta= 0.70
     Davidson diagonalization with overlap
     ethr =  8.57E-12,  avg # of iterations =  8.8

     total cpu time spent up to now is      108.0 secs

     total energy              =   -1448.07975896 Ry
     estimated scf accuracy    <       0.00000002 Ry

     iteration # 23     ecut=    60.00 Ry     beta= 0.70
     Davidson diagonalization with overlap
     ethr =  8.57E-12,  avg # of iterations =  1.1

     total cpu time spent up to now is      110.7 secs

     total energy              =   -1448.07975896 Ry
     estimated scf accuracy    <       0.00000002 Ry

     iteration # 24     ecut=    60.00 Ry     beta= 0.70
     Davidson diagonalization with overlap
     ethr =  8.57E-12,  avg # of iterations =  2.4

     total cpu time spent up to now is      113.7 secs

     total energy              =   -1448.07975896 Ry
     estimated scf accuracy    <       0.00000002 Ry

     iteration # 25     ecut=    60.00 Ry     beta= 0.70
     Davidson diagonalization with overlap
     ethr =  8.57E-12,  avg # of iterations =  1.1

     total cpu time spent up to now is      116.4 secs

     total energy              =   -1448.07975896 Ry
     estimated scf accuracy    <       0.00000002 Ry

     iteration # 26     ecut=    60.00 Ry     beta= 0.70
     Davidson diagonalization with overlap
     ethr =  8.57E-12,  avg # of iterations =  5.2

     total cpu time spent up to now is      120.1 secs

     total energy              =   -1448.07975896 Ry
     estimated scf accuracy    <       0.00000002 Ry

     iteration # 27     ecut=    60.00 Ry     beta= 0.70
     Davidson diagonalization with overlap
     ethr =  8.57E-12,  avg # of iterations =  1.4

     total cpu time spent up to now is      122.9 secs

     total energy              =   -1448.07975896 Ry
     estimated scf accuracy    <       0.00000002 Ry

     iteration # 28     ecut=    60.00 Ry     beta= 0.70
     Davidson diagonalization with overlap
     ethr =  8.57E-12,  avg # of iterations =  6.1

     total cpu time spent up to now is      127.7 secs

     total energy              =   -1448.07975896 Ry
     estimated scf accuracy    <       0.00000001 Ry

     iteration # 29     ecut=    60.00 Ry     beta= 0.70
     Davidson diagonalization with overlap
     ethr =  8.57E-12,  avg # of iterations =  5.7

     total cpu time spent up to now is      131.8 secs

     total energy              =   -1448.07975896 Ry
     estimated scf accuracy    <          3.7E-09 Ry

     iteration # 30     ecut=    60.00 Ry     beta= 0.70
     Davidson diagonalization with overlap
     ethr =  3.78E-12,  avg # of iterations =  4.8

     total cpu time spent up to now is      135.4 secs

     total energy              =   -1448.07975896 Ry
     estimated scf accuracy    <          1.9E-09 Ry

     iteration # 31     ecut=    60.00 Ry     beta= 0.70
     Davidson diagonalization with overlap
     ethr =  1.91E-12,  avg # of iterations =  5.1

     total cpu time spent up to now is      139.0 secs

     total energy              =   -1448.07975896 Ry
     estimated scf accuracy    <          8.7E-10 Ry

     iteration # 32     ecut=    60.00 Ry     beta= 0.70
     Davidson diagonalization with overlap
     ethr =  8.85E-13,  avg # of iterations =  6.4

     total cpu time spent up to now is      143.2 secs

     End of self-consistent calculation

          k = 0.0000 0.0000 0.0000 ( 11075 PWs)   bands (ev):

   -41.1208 -29.7890 -23.7591 -23.7591 -23.7399 -20.1890 -19.4270 -19.4270
   -17.8646 -17.8646 -17.8182 -14.4870 -14.4870 -14.3496 -14.3496 -14.2123
   -11.6956 -11.6956  -8.7312  -7.9850  -7.6389  -7.6389  -7.1637  -7.1637
    -7.0505  -7.0395  -7.0341  -7.0341  -4.4451  -4.4451  -4.3476  -1.4174
    -0.1302  -0.1302   1.1237   1.1237   1.8146   3.1075   3.1075   3.6100
     3.6100   3.9950   4.3703   5.5959   5.5959   6.4150   6.6509   8.0689
     8.5792

          k = 0.0000 0.0000 0.2000 ( 11172 PWs)   bands (ev):

   -41.1208 -29.7889 -23.7631 -23.7590 -23.7358 -20.1901 -19.4278 -19.4274
   -17.8660 -17.8639 -17.8182 -14.4894 -14.4868 -14.3500 -14.3495 -14.2114
   -11.6914 -11.6762  -8.7490  -7.9305  -7.6570  -7.6477  -7.1582  -7.1483
    -7.0565  -7.0425  -7.0350  -7.0328  -4.5651  -4.4384  -4.3768  -1.4185
    -0.1361  -0.1337   1.1297   1.3084   1.7873   3.1177   3.1371   3.5687
     3.6256   4.1446   4.3795   5.5488   5.5569   6.3897   6.7358   8.0276
     8.4374

          k = 0.0000 0.0000 0.4000 ( 11172 PWs)   bands (ev):

   -41.1208 -29.7889 -23.7677 -23.7589 -23.7309 -20.1919 -19.4289 -19.4281
   -17.8685 -17.8628 -17.8180 -14.4933 -14.4865 -14.3505 -14.3492 -14.2099
   -11.6846 -11.6448  -8.7721  -7.8272  -7.7060  -7.6617  -7.1482  -7.1151
    -7.0704  -7.0507  -7.0343  -7.0312  -4.7820  -4.4275  -4.3936  -1.4206
    -0.1453  -0.1385   1.1397   1.5880   1.7581   3.1344   3.2051   3.5234
     3.6476   4.3361   4.4016   5.4868   5.4918   6.3477   6.9317   7.9311
     8.2663

          k = 0.0000 0.2000 0.2000 ( 11178 PWs)   bands (ev):

   -41.1208 -29.7889 -23.7622 -23.7610 -23.7344 -20.1915 -19.4283 -19.4280
   -17.8665 -17.8642 -17.8180 -14.4916 -14.4874 -14.3501 -14.3495 -14.2102
   -11.6775 -11.6643  -8.7752  -7.8712  -7.6742  -7.6482  -7.1530  -7.1314
    -7.0670  -7.0455  -7.0392  -7.0346  -4.5728  -4.5375  -4.4061  -1.4184
    -0.1465  -0.1394   1.2199   1.4069   1.7471   3.1464   3.1663   3.5935
     3.6071   4.2711   4.3957   5.4828   5.5048   6.3632   6.8637   8.0315
     8.3858

          k = 0.0000 0.2000 0.4000 ( 11176 PWs)   bands (ev):

   -41.1208 -29.7888 -23.7665 -23.7608 -23.7301 -20.1927 -19.4294 -19.4288
   -17.8685 -17.8638 -17.8184 -14.4925 -14.4872 -14.3505 -14.3494 -14.2098
   -11.6732 -11.6354  -8.7676  -7.8102  -7.7097  -7.6596  -7.1479  -7.1025
    -7.0806  -7.0546  -7.0400  -7.0299  -4.7710  -4.5464  -4.4100  -1.4300
    -0.1621  -0.1449   1.2593   1.6609   1.7783   3.1529   3.2251   3.5472
     3.6527   4.3548   4.4211   5.3979   5.4675   6.3172   7.0792   8.0666
     8.2524

          k = 0.0000 0.4000 0.4000 ( 11190 PWs)   bands (ev):

   -41.1208 -29.7887 -23.7654 -23.7641 -23.7277 -20.1933 -19.4304 -19.4298
   -17.8694 -17.8649 -17.8195 -14.4892 -14.4879 -14.3507 -14.3499 -14.2105
   -11.6676 -11.6125  -8.7307  -7.8076  -7.7119  -7.6656  -7.1469  -7.1014
    -7.0802  -7.0546  -7.0536  -7.0223  -4.7550  -4.7502  -4.4127  -1.4521
    -0.1890  -0.1516   1.3690   1.8536   1.8703   3.1505   3.2696   3.5327
     3.7062   4.3162   4.4556   5.2775   5.4425   6.2660   7.3293   8.1897
     8.3970

          k = 0.2000 0.2000 0.2000 ( 11200 PWs)   bands (ev):

   -41.1208 -29.7888 -23.7610 -23.7610 -23.7355 -20.1930 -19.4287 -19.4287
   -17.8656 -17.8656 -17.8176 -14.4913 -14.4913 -14.3497 -14.3497 -14.2088
   -11.6566 -11.6566  -8.8109  -7.8140  -7.6601  -7.6601  -7.1241  -7.1241
    -7.0890  -7.0593  -7.0593  -7.0240  -4.5581  -4.5581  -4.5320  -1.4218
    -0.1542  -0.1542   1.4067   1.4067   1.7117   3.1994   3.1994   3.6048
     3.6048   4.3738   4.4177   5.4263   5.4263   6.3355   6.9784   8.1139
     8.4145

          k = 0.2000 0.2000 0.4000 ( 11163 PWs)   bands (ev):

   -41.1208 -29.7888 -23.7650 -23.7608 -23.7314 -20.1937 -19.4299 -19.4294
   -17.8681 -17.8651 -17.8186 -14.4912 -14.4894 -14.3504 -14.3497 -14.2094
   -11.6572 -11.6274  -8.7786  -7.7897  -7.6877  -7.6615  -7.1208  -7.1140
    -7.0827  -7.0761  -7.0627  -7.0170  -4.7604  -4.5545  -4.5335  -1.4454
    -0.1736  -0.1625   1.4190   1.6869   1.7990   3.1971   3.2544   3.5628
     3.6659   4.3755   4.4451   5.3397   5.4045   6.2856   7.1718   8.1970
     8.3213

          k = 0.2000 0.4000 0.4000 ( 11170 PWs)   bands (ev):

   -41.1208 -29.7887 -23.7640 -23.7637 -23.7295 -20.1938 -19.4308 -19.4304
   -17.8692 -17.8665 -17.8203 -14.4879 -14.4875 -14.3507 -14.3503 -14.2111
   -11.6482 -11.6123  -8.7181  -7.8219  -7.6736  -7.6646  -7.1529  -7.0975
    -7.0856  -7.0758  -7.0657  -7.0092  -4.7478  -4.7423  -4.5390  -1.4795
    -0.1995  -0.1768   1.5628   1.8708   1.8918   3.2015   3.2826   3.5876
     3.7125   4.3072   4.4806   5.2648   5.3731   6.2293   7.4007   8.1753
     8.3369

          k = 0.4000 0.4000 0.4000 ( 11215 PWs)   bands (ev):

   -41.1208 -29.7886 -23.7639 -23.7639 -23.7296 -20.1932 -19.4315 -19.4315
   -17.8694 -17.8694 -17.8226 -14.4838 -14.4838 -14.3510 -14.3510 -14.2138
   -11.6201 -11.6201  -8.6225  -7.8996  -7.6511  -7.6511  -7.1886  -7.1093
    -7.1093  -7.0572  -7.0572  -6.9989  -4.7487  -4.7487  -4.6962  -1.5286
    -0.2139  -0.2139   1.8792   1.8792   2.0011   3.2583   3.2583   3.7119
     3.7119   4.2323   4.5214   5.2807   5.2807   6.1653   7.6380   8.2554
     8.2554

          k =-0.2000 0.0000 0.2000 ( 11178 PWs)   bands (ev):

   -41.1208 -29.7889 -23.7662 -23.7598 -23.7318 -20.1905 -19.4284 -19.4280
   -17.8663 -17.8648 -17.8188 -14.4882 -14.4870 -14.3501 -14.3498 -14.2117
   -11.6862 -11.6642  -8.7273  -7.9179  -7.6834  -7.6450  -7.1513  -7.1468
    -7.0550  -7.0492  -7.0318  -7.0270  -4.5807  -4.5358  -4.3991  -1.4300
    -0.1446  -0.1374   1.2275   1.4059   1.8366   3.1129   3.1459   3.5372
     3.6507   4.1861   4.3867   5.5059   5.5445   6.3615   6.8014   8.0584
     8.3345

          k =-0.2000 0.0000 0.4000 ( 11176 PWs)   bands (ev):

   -41.1208 -29.7888 -23.7683 -23.7603 -23.7288 -20.1921 -19.4295 -19.4288
   -17.8685 -17.8641 -17.8189 -14.4905 -14.4868 -14.3506 -14.3496 -14.2107
   -11.6782 -11.6358  -8.7392  -7.8383  -7.7170  -7.6554  -7.1470  -7.1210
    -7.0646  -7.0564  -7.0350  -7.0255  -4.7720  -4.5463  -4.4083  -1.4371
    -0.1610  -0.1438   1.2630   1.6627   1.8316   3.1307   3.2117   3.5183
     3.6757   4.3024   4.4153   5.4158   5.4875   6.3162   7.0273   8.0354
     8.2826

          k =-0.4000 0.0000 0.4000 ( 11190 PWs)   bands (ev):

   -41.1208 -29.7887 -23.7676 -23.7627 -23.7270 -20.1930 -19.4304 -19.4297
   -17.8694 -17.8651 -17.8198 -14.4884 -14.4873 -14.3507 -14.3501 -14.2110
   -11.6710 -11.6125  -8.7127  -7.8222  -7.7214  -7.6616  -7.1441  -7.1180
    -7.0665  -7.0602  -7.0468  -7.0196  -4.7641  -4.7406  -4.4125  -1.4564
    -0.1883  -0.1509   1.3707   1.8608   1.9010   3.1312   3.2631   3.5106
     3.7237   4.2872   4.4520   5.2888   5.4517   6.2655   7.2890   8.1594
     8.2794

          k = 0.2000-0.2000 0.2000 ( 11200 PWs)   bands (ev):

   -41.1208 -29.7888 -23.7666 -23.7609 -23.7301 -20.1911 -19.4288 -19.4287
   -17.8665 -17.8657 -17.8193 -14.4899 -14.4848 -14.3502 -14.3499 -14.2117
   -11.6697 -11.6612  -8.7171  -7.8985  -7.6993  -7.6423  -7.1624  -7.1294
    -7.0573  -7.0515  -7.0361  -7.0226  -4.5784  -4.5696  -4.4965  -1.4394
    -0.1511  -0.1502   1.4070   1.4193   1.8502   3.1393   3.1445   3.5668
     3.6507   4.2362   4.4008   5.4658   5.4998   6.3312   6.9216   8.0810
     8.2826

          k = 0.2000-0.2000 0.4000 ( 11163 PWs)   bands (ev):

   -41.1208 -29.7887 -23.7678 -23.7621 -23.7277 -20.1921 -19.4299 -19.4295
   -17.8689 -17.8652 -17.8201 -14.4899 -14.4841 -14.3508 -14.3499 -14.2116
   -11.6622 -11.6371  -8.6974  -7.8748  -7.7062  -7.6494  -7.1717  -7.1051
    -7.0693  -7.0481  -7.0412  -7.0213  -4.7644  -4.5606  -4.5187  -1.4547
    -0.1725  -0.1588   1.4185   1.7105   1.8713   3.1427   3.2072   3.5931
     3.6641   4.2879   4.4323   5.4065   5.4327   6.2810   7.1926   8.1196
     8.2169

          k =-0.4000 0.2000 0.2000 ( 11163 PWs)   bands (ev):

   -41.1208 -29.7887 -23.7680 -23.7608 -23.7286 -20.1925 -19.4300 -19.4294
   -17.8682 -17.8657 -17.8197 -14.4885 -14.4872 -14.3505 -14.3500 -14.2112
   -11.6653 -11.6303  -8.7202  -7.8444  -7.7103  -7.6504  -7.1492  -7.1193
    -7.0699  -7.0610  -7.0457  -7.0154  -4.7601  -4.5670  -4.5183  -1.4561
    -0.1711  -0.1608   1.4268   1.6881   1.8867   3.1619   3.2116   3.5372
     3.6967   4.2948   4.4344   5.3641   5.4478   6.2831   7.1254   8.1279
     8.2545

          k = 0.4000-0.2000 0.4000 ( 11170 PWs)   bands (ev):

   -41.1208 -29.7887 -23.7666 -23.7640 -23.7268 -20.1925 -19.4308 -19.4305
   -17.8697 -17.8666 -17.8214 -14.4865 -14.4839 -14.3510 -14.3504 -14.2127
   -11.6515 -11.6205  -8.6459  -7.9063  -7.6823  -7.6528  -7.1831  -7.0994
    -7.0823  -7.0497  -7.0439  -7.0149  -4.7603  -4.7323  -4.5321  -1.4845
    -0.1986  -0.1743   1.5646   1.8785   1.9449   3.1637   3.2385   3.6229
     3.7061   4.2552   4.4713   5.3089   5.3974   6.2255   7.4716   8.2343
     8.3681

          k =-0.4000 0.2000 0.4000 ( 11170 PWs)   bands (ev):

   -41.1208 -29.7887 -23.7670 -23.7630 -23.7274 -20.1928 -19.4308 -19.4304
   -17.8694 -17.8668 -17.8212 -14.4871 -14.4843 -14.3509 -14.3505 -14.2125
   -11.6533 -11.6163  -8.6627  -7.8819  -7.6893  -7.6516  -7.1740  -7.1036
    -7.0798  -7.0618  -7.0461  -7.0105  -4.7570  -4.7338  -4.5350  -1.4852
    -0.1982  -0.1751   1.5660   1.8678   1.9559   3.1665   3.2480   3.5873
     3.7292   4.2595   4.4723   5.2919   5.3990   6.2265   7.4114   8.1697
     8.3020

          k = 0.4000-0.4000 0.4000 ( 11215 PWs)   bands (ev):

   -41.1208 -29.7886 -23.7657 -23.7639 -23.7279 -20.1925 -19.4316 -19.4315
   -17.8697 -17.8694 -17.8234 -14.4832 -14.4813 -14.3512 -14.3511 -14.2148
   -11.6251 -11.6221  -8.5660  -7.9638  -7.6575  -7.6437  -7.2011  -7.1135
    -7.1013  -7.0504  -7.0448  -7.0000  -4.7565  -4.7519  -4.6824  -1.5316
    -0.2134  -0.2123   1.8739   1.8839   2.0447   3.2290   3.2331   3.7060
     3.7339   4.2060   4.5149   5.2923   5.3066   6.1626   7.6817   8.2935
     8.3851

     highest occupied level (ev):     8.5792

!    total energy              =   -1448.07975896 Ry
     total all-electron energy =     -1448.079759 Ry
     estimated scf accuracy    <          3.1E-11 Ry

     The total energy is the sum of the following terms:
     one-electron contribution =    -458.29084377 Ry
     hartree contribution      =     298.19046686 Ry
     xc contribution           =    -121.68506017 Ry
     ewald contribution        =    -342.76060903 Ry
     one-center paw contrib.   =    -823.53371286 Ry

     convergence has been achieved in  32 iterations

     Forces acting on atoms (cartesian axes, Ry/au):

     atom    1 type  1   force =     0.02774571    0.02774571    0.02774571
     atom    2 type  1   force =     0.03467623    0.03467623   -0.02825588
     atom    3 type  1   force =     0.03467623   -0.02825588    0.03467623
     atom    4 type  1   force =    -0.02825588    0.03467623    0.03467623
     atom    5 type  3   force =     0.01507296    0.01507296    0.01507296
     atom    6 type  2   force =     0.05132010    0.05132010    0.05132010
     atom    7 type  4   force =     0.62924531   -0.02557633   -0.02557633
     atom    8 type  4   force =    -0.67739028   -0.01796886   -0.01796886
     atom    9 type  4   force =    -0.02557633    0.62924531   -0.02557633
     atom   10 type  4   force =    -0.01796886   -0.67739028   -0.01796886
     atom   11 type  4   force =    -0.02557633   -0.02557633    0.62924531
     atom   12 type  4   force =    -0.01796886   -0.01796886   -0.67739028

     Total force =     1.609592     Total SCF correction =     0.000018


     Computing stress (Cartesian axis) and pressure

          total   stress  (Ry/bohr**3)                   (kbar)     P=      493.38
   0.00335396  -0.00008901  -0.00008901          493.38      -13.09      -13.09
  -0.00008901   0.00335396  -0.00008901          -13.09      493.38      -13.09
  -0.00008901  -0.00008901   0.00335396          -13.09      -13.09      493.38


     Writing all to output data dir ./K4SnZrO6.save/

     init_run     :      4.58s CPU      4.71s WALL (       1 calls)
     electrons    :    133.53s CPU    137.41s WALL (       1 calls)
     forces       :      0.97s CPU      1.02s WALL (       1 calls)
     stress       :      2.92s CPU      2.98s WALL (       1 calls)

     Called by init_run:
     wfcinit      :      2.07s CPU      2.12s WALL (       1 calls)
     potinit      :      0.97s CPU      1.00s WALL (       1 calls)
     hinit0       :      1.10s CPU      1.11s WALL (       1 calls)

     Called by electrons:
     c_bands      :    100.08s CPU    101.99s WALL (      32 calls)
     sum_band     :     13.23s CPU     14.21s WALL (      32 calls)
     v_of_rho     :      0.90s CPU      0.95s WALL (      33 calls)
     newd         :      3.23s CPU      3.98s WALL (      33 calls)
     PAW_pot      :     16.45s CPU     16.60s WALL (      33 calls)
     mix_rho      :      0.16s CPU      0.17s WALL (      32 calls)

     Called by c_bands:
     init_us_2    :      0.99s CPU      1.03s WALL (    1273 calls)
     init_us_2:cp :      0.99s CPU      1.03s WALL (    1273 calls)
     cegterg      :     96.67s CPU     98.50s WALL (     608 calls)

     Called by *egterg:
     cdiaghg      :     37.89s CPU     38.40s WALL (    4162 calls)
     h_psi        :     41.94s CPU     42.99s WALL (    4181 calls)
     s_psi        :      4.28s CPU      4.34s WALL (    4181 calls)
     g_psi        :      0.63s CPU      0.64s WALL (    3554 calls)

     Called by h_psi:
     h_psi:calbec :      5.03s CPU      5.26s WALL (    4181 calls)
     vloc_psi     :     32.30s CPU     33.06s WALL (    4181 calls)
     add_vuspsi   :      4.38s CPU      4.44s WALL (    4181 calls)

     General routines
     calbec       :      6.82s CPU      7.15s WALL (    4884 calls)
     fft          :      0.72s CPU      0.77s WALL (     452 calls)
     ffts         :      0.26s CPU      0.26s WALL (      65 calls)
     fftw         :     33.95s CPU     34.72s WALL (  187360 calls)
     interpolate  :      0.29s CPU      0.29s WALL (      33 calls)

     Parallel routines

     PWSCF        :   2m23.32s CPU   2m29.28s WALL


   This run was terminated on:   3: 4:13  30Nov2025            

=------------------------------------------------------------------------------=
   JOB DONE.
=------------------------------------------------------------------------------=
