
     Program PWSCF v.7.1 starts on 30Nov2025 at 23:30:22 

     This program is part of the open-source Quantum ESPRESSO suite
     for quantum simulation of materials; please cite
         "P. Giannozzi et al., J. Phys.:Condens. Matter 21 395502 (2009);
         "P. Giannozzi et al., J. Phys.:Condens. Matter 29 465901 (2017);
         "P. Giannozzi et al., J. Chem. Phys. 152 154105 (2020);
          URL http://www.quantum-espresso.org", 
     in publications or presentations arising from this work. More details at
     http://www.quantum-espresso.org/quote

     Parallel version (MPI & OpenMP), running on      16 processor cores
     Number of MPI processes:                16
     Threads/MPI process:                     1

     MPI processes distributed on     1 nodes
     10045 MiB available memory on the printing compute node when the environment starts

     Waiting for input...
     Reading input from standard input

     Current dimensions of program PWSCF are:
     Max number of different atomic species (ntypx) = 10
     Max number of k-points (npk) =  40000
     Max angular momentum in pseudopotentials (lmaxx) =  4
     Message from routine read_pp_mesh:
     mismatch in mesh size, discarding the one in header
     Message from routine read_pp_mesh:
     mismatch in mesh size, discarding the one in header
     Message from routine read_pp_mesh:
     mismatch in mesh size, discarding the one in header
     Message from routine read_pp_mesh:
     mismatch in mesh size, discarding the one in header
     Message from routine read_pp_mesh:
     mismatch in mesh size, discarding the one in header
     Message from routine setup:
     using ibrav=0 with symmetry is DISCOURAGED, use correct ibrav instead

     R & G space division:  proc/nbgrp/npool/nimage =      16
     Subspace diagonalization in iterative solution of the eigenvalue problem:
     a serial algorithm will be used


     Parallelization info
     --------------------
     sticks:   dense  smooth     PW     G-vecs:    dense   smooth      PW
     Min         302     151     41                15818     5573     784
     Max         304     152     43                15821     5577     786
     Sum        4849    2417    665               253119    89199   12557

     Using Slab Decomposition



     bravais-lattice index     =            0
     lattice parameter (alat)  =      11.2511  a.u.
     unit-cell volume          =    1424.2554 (a.u.)^3
     number of atoms/cell      =           12
     number of atomic types    =            5
     number of electrons       =        98.00
     number of Kohn-Sham states=           49
     kinetic-energy cutoff     =      60.0000  Ry
     charge density cutoff     =     480.0000  Ry
     scf convergence threshold =      1.0E-10
     mixing beta               =       0.7000
     number of iterations used =            8  plain     mixing
     Exchange-correlation= SLA PW PBX PBC
                           (   1   4   3   4   0   0   0)

     celldm(1)=  11.251125  celldm(2)=   0.000000  celldm(3)=   0.000000
     celldm(4)=   0.000000  celldm(5)=   0.000000  celldm(6)=   0.000000

     crystal axes: (cart. coord. in units of alat)
               a(1) = (   1.000000   0.000000   0.000000 )  
               a(2) = (   0.000000   1.000000   0.000000 )  
               a(3) = (   0.000000   0.000000   1.000000 )  

     reciprocal axes: (cart. coord. in units 2 pi/alat)
               b(1) = (  1.000000  0.000000  0.000000 )  
               b(2) = (  0.000000  1.000000  0.000000 )  
               b(3) = (  0.000000  0.000000  1.000000 )  


     PseudoPot. # 1 for Na read from file:
     ./Na.upf
     MD5 check sum: b8e483bdca8edababda73ba53cc0c4c9
     Pseudo is Projector augmented-wave + core cor, Zval =  9.0
     Generated using ATOMPAW code
     Shape of augmentation charge: SINC**2
     Using radial grid of 2342 points,  4 beta functions with: 
                l(1) =   0
                l(2) =   0
                l(3) =   1
                l(4) =   1
     Q(r) pseudized with 0 coefficients 


     PseudoPot. # 2 for K  read from file:
     ./K.upf
     MD5 check sum: 9356cfae17991a8ac93a0af773ad5d28
     Pseudo is Projector augmented-wave + core cor, Zval =  9.0
     Generated using ATOMPAW code
     Shape of augmentation charge: SINC**2
     Using radial grid of 2342 points,  5 beta functions with: 
                l(1) =   0
                l(2) =   0
                l(3) =   1
                l(4) =   1
                l(5) =   2
     Q(r) pseudized with 0 coefficients 


     PseudoPot. # 3 for Zr read from file:
     ./Zr.upf
     MD5 check sum: 10be9e9715c592225794718718b87d8f
     Pseudo is Projector augmented-wave + core cor, Zval = 12.0
     Generated using ATOMPAW code
     Shape of augmentation charge: BESSEL
     Using radial grid of 2342 points,  6 beta functions with: 
                l(1) =   0
                l(2) =   0
                l(3) =   1
                l(4) =   1
                l(5) =   2
                l(6) =   2
     Q(r) pseudized with 0 coefficients 


     PseudoPot. # 4 for Sn read from file:
     ./Sn.upf
     MD5 check sum: f8d5c2bd65c7f969f3af92fc3a9f2821
     Pseudo is Projector augmented-wave + core cor, Zval = 14.0
     Generated using ATOMPAW code
     Shape of augmentation charge: BESSEL
     Using radial grid of 2342 points,  6 beta functions with: 
                l(1) =   0
                l(2) =   0
                l(3) =   1
                l(4) =   1
                l(5) =   2
                l(6) =   2
     Q(r) pseudized with 0 coefficients 


     PseudoPot. # 5 for O  read from file:
     ./O.upf
     MD5 check sum: 45fbb1c0d1f8837f1e386a2947d3aa26
     Pseudo is Projector augmented-wave + core cor, Zval =  6.0
     Generated using ATOMPAW code
     Shape of augmentation charge: SINC**2
     Using radial grid of 2342 points,  4 beta functions with: 
                l(1) =   0
                l(2) =   0
                l(3) =   1
                l(4) =   1
     Q(r) pseudized with 0 coefficients 


     atomic species   valence    mass     pseudopotential
        Na             9.00    22.96000     Na( 1.00)
        K              9.00    39.09800     K ( 1.00)
        Zr            12.00    91.22400     Zr( 1.00)
        Sn            14.00   118.71000     Sn( 1.00)
        O              6.00    15.99900     O ( 1.00)

      2 Sym. Ops. (no inversion) found



   Cartesian axes

     site n.     atom                  positions (alat units)
         1           Na  tau(   1) = (   0.0000000   0.0000000   0.0000000  )
         2           K   tau(   2) = (   0.5000000   0.5000000   0.0000000  )
         3           Na  tau(   3) = (   0.5000000   0.0000000   0.5000000  )
         4           K   tau(   4) = (   0.0000000   0.5000000   0.5000000  )
         5           Zr  tau(   5) = (   0.2500000   0.2500000   0.2500000  )
         6           Sn  tau(   6) = (   0.7500000   0.7500000   0.7500000  )
         7           O   tau(   7) = (   0.2500000   0.0000000   0.0000000  )
         8           O   tau(   8) = (   0.7500000   0.0000000   0.0000000  )
         9           O   tau(   9) = (   0.0000000   0.2500000   0.0000000  )
        10           O   tau(  10) = (   0.0000000   0.7500000   0.0000000  )
        11           O   tau(  11) = (   0.0000000   0.0000000   0.2500000  )
        12           O   tau(  12) = (   0.0000000   0.0000000   0.7500000  )

     number of k points=    10
                       cart. coord. in units 2pi/alat
        k(    1) = (   0.0000000   0.0000000   0.0000000), wk =   0.0740741
        k(    2) = (   0.0000000   0.0000000   0.3333333), wk =   0.2962963
        k(    3) = (   0.0000000   0.3333333   0.3333333), wk =   0.2962963
        k(    4) = (   0.3333333   0.3333333   0.3333333), wk =   0.1481481
        k(    5) = (   0.0000000   0.3333333   0.0000000), wk =   0.1481481
        k(    6) = (   0.0000000   0.3333333  -0.3333333), wk =   0.2962963
        k(    7) = (   0.3333333   0.0000000  -0.3333333), wk =   0.1481481
        k(    8) = (  -0.3333333   0.0000000  -0.3333333), wk =   0.1481481
        k(    9) = (  -0.3333333   0.3333333  -0.3333333), wk =   0.1481481
        k(   10) = (   0.3333333  -0.3333333  -0.3333333), wk =   0.2962963

     Dense  grid:   253119 G-vectors     FFT dimensions: (  80,  80,  80)

     Smooth grid:    89199 G-vectors     FFT dimensions: (  60,  60,  60)

     Estimated max dynamical RAM per process >      75.40 MB

     Estimated total dynamical RAM >       1.18 GB

     Check: negative core charge=   -0.000001

     Initial potential from superposition of free atoms

     starting charge      97.9418, renormalised to      98.0000
     Starting wfcs are  126 randomized atomic wfcs
     Checking if some PAW data can be deallocated... 

     total cpu time spent up to now is        5.3 secs

     per-process dynamical memory:    68.1 Mb

     Self-consistent Calculation

     iteration #  1     ecut=    60.00 Ry     beta= 0.70
     Davidson diagonalization with overlap
     ethr =  1.00E-02,  avg # of iterations =  2.0

     total cpu time spent up to now is        7.2 secs

     total energy              =   -1432.44525945 Ry
     estimated scf accuracy    <      12.34892627 Ry

     iteration #  2     ecut=    60.00 Ry     beta= 0.70
     Davidson diagonalization with overlap
     ethr =  1.00E-02,  avg # of iterations =  8.9

     total cpu time spent up to now is       10.9 secs

     total energy              =   -1422.73545283 Ry
     estimated scf accuracy    <     210.43836259 Ry

     iteration #  3     ecut=    60.00 Ry     beta= 0.70
     Davidson diagonalization with overlap
     ethr =  1.00E-02,  avg # of iterations =  7.2

     total cpu time spent up to now is       14.6 secs

     total energy              =   -1440.52395661 Ry
     estimated scf accuracy    <       2.81824997 Ry

     iteration #  4     ecut=    60.00 Ry     beta= 0.70
     Davidson diagonalization with overlap
     ethr =  2.88E-03,  avg # of iterations =  5.6

     total cpu time spent up to now is       17.2 secs

     total energy              =   -1440.81265480 Ry
     estimated scf accuracy    <       1.19714836 Ry

     iteration #  5     ecut=    60.00 Ry     beta= 0.70
     Davidson diagonalization with overlap
     ethr =  1.22E-03,  avg # of iterations =  4.8

     total cpu time spent up to now is       19.6 secs

     total energy              =   -1440.88054348 Ry
     estimated scf accuracy    <       0.57542660 Ry

     iteration #  6     ecut=    60.00 Ry     beta= 0.70
     Davidson diagonalization with overlap
     ethr =  5.87E-04,  avg # of iterations =  1.2

     total cpu time spent up to now is       21.4 secs

     total energy              =   -1440.78733854 Ry
     estimated scf accuracy    <       0.41067950 Ry

     iteration #  7     ecut=    60.00 Ry     beta= 0.70
     Davidson diagonalization with overlap
     ethr =  4.19E-04,  avg # of iterations =  6.9

     total cpu time spent up to now is       24.2 secs

     total energy              =   -1440.85677616 Ry
     estimated scf accuracy    <       0.61818821 Ry

     iteration #  8     ecut=    60.00 Ry     beta= 0.70
     Davidson diagonalization with overlap
     ethr =  4.19E-04,  avg # of iterations =  1.0

     total cpu time spent up to now is       26.0 secs

     total energy              =   -1440.83793420 Ry
     estimated scf accuracy    <       0.46413455 Ry

     iteration #  9     ecut=    60.00 Ry     beta= 0.70
     Davidson diagonalization with overlap
     ethr =  4.19E-04,  avg # of iterations =  2.7

     total cpu time spent up to now is       28.0 secs

     total energy              =   -1440.81996623 Ry
     estimated scf accuracy    <       0.23748384 Ry

     iteration # 10     ecut=    60.00 Ry     beta= 0.70
     Davidson diagonalization with overlap
     ethr =  2.42E-04,  avg # of iterations =  6.2

     total cpu time spent up to now is       30.5 secs

     total energy              =   -1440.84362463 Ry
     estimated scf accuracy    <       0.01516529 Ry

     iteration # 11     ecut=    60.00 Ry     beta= 0.70
     Davidson diagonalization with overlap
     ethr =  1.55E-05,  avg # of iterations =  7.1

     total cpu time spent up to now is       33.4 secs

     total energy              =   -1440.84822845 Ry
     estimated scf accuracy    <       0.01223455 Ry

     iteration # 12     ecut=    60.00 Ry     beta= 0.70
     Davidson diagonalization with overlap
     ethr =  1.25E-05,  avg # of iterations =  5.2

     total cpu time spent up to now is       36.0 secs

     total energy              =   -1440.84795801 Ry
     estimated scf accuracy    <       0.03750197 Ry

     iteration # 13     ecut=    60.00 Ry     beta= 0.70
     Davidson diagonalization with overlap
     ethr =  1.25E-05,  avg # of iterations =  4.2

     total cpu time spent up to now is       38.2 secs

     total energy              =   -1440.84669452 Ry
     estimated scf accuracy    <       0.01851780 Ry

     iteration # 14     ecut=    60.00 Ry     beta= 0.70
     Davidson diagonalization with overlap
     ethr =  1.25E-05,  avg # of iterations =  4.4

     total cpu time spent up to now is       40.4 secs

     total energy              =   -1440.84717687 Ry
     estimated scf accuracy    <       0.00343419 Ry

     iteration # 15     ecut=    60.00 Ry     beta= 0.70
     Davidson diagonalization with overlap
     ethr =  3.50E-06,  avg # of iterations =  6.6

     total cpu time spent up to now is       43.0 secs

     total energy              =   -1440.84738521 Ry
     estimated scf accuracy    <       0.00074230 Ry

     iteration # 16     ecut=    60.00 Ry     beta= 0.70
     Davidson diagonalization with overlap
     ethr =  7.57E-07,  avg # of iterations =  8.0

     total cpu time spent up to now is       45.8 secs

     total energy              =   -1440.84747568 Ry
     estimated scf accuracy    <       0.00013840 Ry

     iteration # 17     ecut=    60.00 Ry     beta= 0.70
     Davidson diagonalization with overlap
     ethr =  1.41E-07,  avg # of iterations =  6.3

     total cpu time spent up to now is       48.3 secs

     total energy              =   -1440.84748572 Ry
     estimated scf accuracy    <       0.00002261 Ry

     iteration # 18     ecut=    60.00 Ry     beta= 0.70
     Davidson diagonalization with overlap
     ethr =  2.31E-08,  avg # of iterations =  6.7

     total cpu time spent up to now is       51.2 secs

     total energy              =   -1440.84748795 Ry
     estimated scf accuracy    <       0.00003109 Ry

     iteration # 19     ecut=    60.00 Ry     beta= 0.70
     Davidson diagonalization with overlap
     ethr =  2.31E-08,  avg # of iterations =  4.0

     total cpu time spent up to now is       53.3 secs

     total energy              =   -1440.84748820 Ry
     estimated scf accuracy    <       0.00001269 Ry

     iteration # 20     ecut=    60.00 Ry     beta= 0.70
     Davidson diagonalization with overlap
     ethr =  1.30E-08,  avg # of iterations =  6.5

     total cpu time spent up to now is       55.8 secs

     total energy              =   -1440.84748843 Ry
     estimated scf accuracy    <       0.00000382 Ry

     iteration # 21     ecut=    60.00 Ry     beta= 0.70
     Davidson diagonalization with overlap
     ethr =  3.89E-09,  avg # of iterations =  7.2

     total cpu time spent up to now is       58.6 secs

     total energy              =   -1440.84748905 Ry
     estimated scf accuracy    <       0.00000200 Ry

     iteration # 22     ecut=    60.00 Ry     beta= 0.70
     Davidson diagonalization with overlap
     ethr =  2.04E-09,  avg # of iterations =  1.0

     total cpu time spent up to now is       60.4 secs

     total energy              =   -1440.84748884 Ry
     estimated scf accuracy    <       0.00000146 Ry

     iteration # 23     ecut=    60.00 Ry     beta= 0.70
     Davidson diagonalization with overlap
     ethr =  1.49E-09,  avg # of iterations =  7.5

     total cpu time spent up to now is       63.1 secs

     total energy              =   -1440.84748906 Ry
     estimated scf accuracy    <       0.00000064 Ry

     iteration # 24     ecut=    60.00 Ry     beta= 0.70
     Davidson diagonalization with overlap
     ethr =  6.57E-10,  avg # of iterations =  3.4

     total cpu time spent up to now is       65.2 secs

     total energy              =   -1440.84748904 Ry
     estimated scf accuracy    <       0.00000032 Ry

     iteration # 25     ecut=    60.00 Ry     beta= 0.70
     Davidson diagonalization with overlap
     ethr =  3.27E-10,  avg # of iterations =  6.1

     total cpu time spent up to now is       67.7 secs

     total energy              =   -1440.84748908 Ry
     estimated scf accuracy    <       0.00000001 Ry

     iteration # 26     ecut=    60.00 Ry     beta= 0.70
     Davidson diagonalization with overlap
     ethr =  1.29E-11,  avg # of iterations =  7.4

     total cpu time spent up to now is       70.8 secs

     total energy              =   -1440.84748908 Ry
     estimated scf accuracy    <          9.5E-09 Ry

     iteration # 27     ecut=    60.00 Ry     beta= 0.70
     Davidson diagonalization with overlap
     ethr =  9.70E-12,  avg # of iterations =  5.4

     total cpu time spent up to now is       73.2 secs

     total energy              =   -1440.84748908 Ry
     estimated scf accuracy    <          3.1E-10 Ry

     iteration # 28     ecut=    60.00 Ry     beta= 0.70
     Davidson diagonalization with overlap
     ethr =  3.21E-13,  avg # of iterations =  7.5

     total cpu time spent up to now is       76.5 secs

     total energy              =   -1440.84748908 Ry
     estimated scf accuracy    <          7.4E-10 Ry

     iteration # 29     ecut=    60.00 Ry     beta= 0.70
     Davidson diagonalization with overlap
     ethr =  3.21E-13,  avg # of iterations =  6.1

     total cpu time spent up to now is       79.1 secs

     total energy              =   -1440.84748908 Ry
     estimated scf accuracy    <          1.0E-10 Ry

     iteration # 30     ecut=    60.00 Ry     beta= 0.70
     Davidson diagonalization with overlap
     ethr =  1.03E-13,  avg # of iterations =  6.6

     total cpu time spent up to now is       81.9 secs

     End of self-consistent calculation

          k = 0.0000 0.0000 0.0000 ( 11075 PWs)   bands (ev):

   -47.1467 -44.4634 -43.4891 -25.5712 -25.5526 -21.7645 -21.7345 -21.7337
   -19.2185 -19.0138 -18.9728 -18.5297 -18.2970 -18.2955 -15.5602 -15.5074
   -15.3686 -15.3538 -15.2775 -12.3487 -10.1779 -10.1464  -9.7428  -9.4105
    -8.9298  -8.9297  -8.8453  -8.7688  -8.7658  -8.6478  -8.6252  -0.8888
     1.3858   1.4016   1.5626   2.6478   2.7158   2.7415   3.1053   3.4355
     3.5223   4.2067   4.2801   4.7865   5.6429   5.8071   6.0605   6.6482
     6.7155

          k = 0.0000 0.0000 0.3333 ( 11188 PWs)   bands (ev):

   -47.1468 -44.4635 -43.4891 -25.5763 -25.5475 -21.7648 -21.7348 -21.7339
   -19.2182 -19.0140 -18.9729 -18.5308 -18.2989 -18.2960 -15.5610 -15.5067
   -15.3687 -15.3538 -15.2770 -12.3314 -10.1239 -10.0983  -9.6930  -9.4938
    -8.9801  -8.9033  -8.8629  -8.8094  -8.7592  -8.7066  -8.6192  -0.8933
     1.3466   1.3646   1.6687   2.6168   2.7780   2.8714   3.1291   3.4965
     3.5494   4.2290   4.7040   4.8323   5.4728   5.6434   5.9228   6.2561
     6.6392

          k = 0.0000 0.3333 0.3333 ( 11162 PWs)   bands (ev):

   -47.1467 -44.4635 -43.4891 -25.5761 -25.5476 -21.7648 -21.7352 -21.7341
   -19.2182 -19.0139 -18.9728 -18.5313 -18.2992 -18.2975 -15.5612 -15.5060
   -15.3688 -15.3537 -15.2769 -12.3129 -10.0954 -10.0086  -9.6868  -9.5587
    -9.0449  -8.9533  -8.8714  -8.8292  -8.7665  -8.6632  -8.6210  -0.8997
     1.2889   1.3401   1.7432   2.7764   2.7915   2.8729   3.1595   3.5406
     3.6189   4.5857   4.7033   4.8799   5.3416   5.4774   5.8218   6.1334
     6.3200

          k = 0.3333 0.3333 0.3333 ( 11188 PWs)   bands (ev):

   -47.1468 -44.4634 -43.4891 -25.5750 -25.5487 -21.7650 -21.7352 -21.7343
   -19.2183 -19.0139 -18.9729 -18.5323 -18.2998 -18.2989 -15.5603 -15.5063
   -15.3688 -15.3537 -15.2772 -12.2843 -10.0118 -10.0027  -9.7516  -9.5256
    -9.0902  -8.9972  -8.8864  -8.8340  -8.8260  -8.6336  -8.5973  -0.9615
     1.2388   1.2664   1.9612   2.7843   2.8543   2.8891   3.3907   3.6119
     3.6140   4.6944   4.7044   4.9573   5.3894   5.5163   5.6462   6.1548
     6.1689

          k = 0.0000 0.3333 0.0000 ( 11188 PWs)   bands (ev):

   -47.1468 -44.4635 -43.4891 -25.5711 -25.5527 -21.7647 -21.7349 -21.7339
   -19.2188 -19.0139 -18.9730 -18.5301 -18.2976 -18.2967 -15.5613 -15.5065
   -15.3688 -15.3539 -15.2764 -12.3431 -10.1371 -10.0399  -9.7157  -9.5008
    -9.0024  -8.9124  -8.8343  -8.8011  -8.7457  -8.7141  -8.6332  -0.8734
     1.3600   1.3894   1.6204   2.6527   2.7848   2.8126   3.1539   3.5025
     3.5409   4.2906   4.6446   4.8159   5.4514   5.6468   5.8664   6.1034
     6.6417

          k = 0.0000 0.3333-0.3333 ( 11162 PWs)   bands (ev):

   -47.1467 -44.4635 -43.4891 -25.5761 -25.5476 -21.7646 -21.7352 -21.7342
   -19.2182 -19.0140 -18.9728 -18.5315 -18.2992 -18.2976 -15.5606 -15.5060
   -15.3687 -15.3536 -15.2779 -12.3047 -10.1405 -10.0117  -9.7106  -9.5171
    -9.0243  -8.9072  -8.8887  -8.7999  -8.7656  -8.6816  -8.6563  -0.9255
     1.2914   1.3381   1.8655   2.7179   2.7461   2.9376   3.0787   3.5354
     3.5975   4.4941   4.7491   4.8781   5.3652   5.5937   5.7014   6.1557
     6.5417

          k = 0.3333 0.0000-0.3333 ( 11162 PWs)   bands (ev):

   -47.1467 -44.4635 -43.4891 -25.5780 -25.5457 -21.7651 -21.7349 -21.7340
   -19.2187 -19.0138 -18.9728 -18.5313 -18.3000 -18.2962 -15.5611 -15.5068
   -15.3688 -15.3540 -15.2762 -12.3157 -10.0872 -10.0193  -9.6535  -9.5743
    -9.0491  -8.9008  -8.8454  -8.8013  -8.7673  -8.7377  -8.6681  -0.9182
     1.2791   1.3437   1.8869   2.6729   2.7779   2.9912   3.0758   3.5592
     3.5796   4.4865   4.7609   4.8757   5.3322   5.5619   5.7372   6.1444
     6.5649

          k =-0.3333 0.0000-0.3333 ( 11162 PWs)   bands (ev):

   -47.1467 -44.4635 -43.4891 -25.5752 -25.5486 -21.7652 -21.7348 -21.7341
   -19.2181 -19.0139 -18.9729 -18.5315 -18.2999 -18.2965 -15.5604 -15.5067
   -15.3688 -15.3539 -15.2765 -12.3147 -10.0921 -10.0222  -9.7154  -9.5015
    -9.0452  -8.8850  -8.8600  -8.8010  -8.7821  -8.7221  -8.6786  -0.9013
     1.2702   1.3527   1.7875   2.7258   2.8371   2.8513   3.1636   3.5399
     3.6075   4.5847   4.7098   4.8780   5.4083   5.4600   5.8778   6.1218
     6.3769

          k =-0.3333 0.3333-0.3333 ( 11188 PWs)   bands (ev):

   -47.1468 -44.4634 -43.4891 -25.5750 -25.5487 -21.7646 -21.7352 -21.7345
   -19.2182 -19.0140 -18.9729 -18.5328 -18.3000 -18.2989 -15.5591 -15.5063
   -15.3686 -15.3534 -15.2789 -12.2675 -10.0761 -10.0680  -9.7668  -9.4163
    -9.0452  -8.9679  -8.9236  -8.8007  -8.7842  -8.6676  -8.6499  -0.9862
     1.2304   1.2720   1.9983   2.7827   2.8347   2.8922   3.2672   3.6103
     3.6449   4.8113   4.8147   4.9485   5.3201   5.5454   5.7276   6.0987
     6.1565

          k = 0.3333-0.3333-0.3333 ( 11188 PWs)   bands (ev):

   -47.1468 -44.4634 -43.4891 -25.5778 -25.5459 -21.7648 -21.7354 -21.7343
   -19.2188 -19.0139 -18.9728 -18.5323 -18.3000 -18.2985 -15.5601 -15.5063
   -15.3687 -15.3536 -15.2776 -12.2761 -10.0746 -10.0100  -9.7345  -9.5003
    -9.0578  -8.9914  -8.9055  -8.8139  -8.7902  -8.6674  -8.6159  -0.9657
     1.2415   1.2596   1.9653   2.7926   2.8367   2.9109   3.2760   3.5915
     3.6508   4.7948   4.8909   4.9339   5.2680   5.4507   5.7317   6.0698
     6.2079

     highest occupied level (ev):     6.7155

!    total energy              =   -1440.84748908 Ry
     total all-electron energy =     -1440.847489 Ry
     estimated scf accuracy    <          6.5E-11 Ry

     The total energy is the sum of the following terms:
     one-electron contribution =    -592.85021602 Ry
     hartree contribution      =     345.83919035 Ry
     xc contribution           =    -129.30851955 Ry
     ewald contribution        =    -342.76060903 Ry
     one-center paw contrib.   =    -721.76733483 Ry

     convergence has been achieved in  30 iterations

     Forces acting on atoms (cartesian axes, Ry/au):

     atom    1 type  1   force =     0.01812156    0.01193420    0.01812156
     atom    2 type  2   force =    -0.01396162   -0.01619401    0.01010937
     atom    3 type  1   force =     0.00989663   -0.01497422    0.00989663
     atom    4 type  2   force =     0.01010937   -0.01619401   -0.01396162
     atom    5 type  3   force =    -0.23541538   -0.25991983   -0.23541538
     atom    6 type  4   force =     0.06595032    0.14336457    0.06595032
     atom    7 type  5   force =     0.86003484    0.05812655    0.05718708
     atom    8 type  5   force =    -0.82402764   -0.00069665    0.00109495
     atom    9 type  5   force =     0.05588761    0.87017949    0.05588761
     atom   10 type  5   force =    -0.00487772   -0.83305598   -0.00487772
     atom   11 type  5   force =     0.05718708    0.05812655    0.86003484
     atom   12 type  5   force =     0.00109495   -0.00069665   -0.82402764

     Total force =     2.125592     Total SCF correction =     0.000031


     Computing stress (Cartesian axis) and pressure

          total   stress  (Ry/bohr**3)                   (kbar)     P=      495.68
   0.00338382  -0.00039937  -0.00059060          497.78      -58.75      -86.88
  -0.00039937   0.00334106  -0.00039937          -58.75      491.49      -58.75
  -0.00059060  -0.00039937   0.00338382          -86.88      -58.75      497.78


     Writing all to output data dir ./Na2K2SnZrO6.save/

     init_run     :      3.57s CPU      3.73s WALL (       1 calls)
     electrons    :     74.03s CPU     76.64s WALL (       1 calls)
     forces       :      0.98s CPU      1.01s WALL (       1 calls)
     stress       :      2.76s CPU      2.85s WALL (       1 calls)

     Called by init_run:
     wfcinit      :      0.98s CPU      1.02s WALL (       1 calls)
     potinit      :      1.04s CPU      1.06s WALL (       1 calls)
     hinit0       :      1.28s CPU      1.34s WALL (       1 calls)

     Called by electrons:
     c_bands      :     45.71s CPU     46.57s WALL (      30 calls)
     sum_band     :      8.91s CPU      9.77s WALL (      30 calls)
     v_of_rho     :      0.84s CPU      0.89s WALL (      31 calls)
     newd         :      3.44s CPU      4.14s WALL (      31 calls)
     PAW_pot      :     15.52s CPU     15.60s WALL (      31 calls)
     mix_rho      :      0.14s CPU      0.16s WALL (      30 calls)

     Called by c_bands:
     init_us_2    :      0.51s CPU      0.53s WALL (     630 calls)
     init_us_2:cp :      0.50s CPU      0.53s WALL (     630 calls)
     cegterg      :     44.18s CPU     45.01s WALL (     300 calls)

     Called by *egterg:
     cdiaghg      :     16.77s CPU     17.01s WALL (    1937 calls)
     h_psi        :     19.76s CPU     20.24s WALL (    1947 calls)
     s_psi        :      1.87s CPU      1.90s WALL (    1947 calls)
     g_psi        :      0.30s CPU      0.30s WALL (    1637 calls)

     Called by h_psi:
     h_psi:calbec :      2.29s CPU      2.38s WALL (    1947 calls)
     vloc_psi     :     15.42s CPU     15.78s WALL (    1947 calls)
     add_vuspsi   :      1.94s CPU      1.96s WALL (    1947 calls)

     General routines
     calbec       :      3.13s CPU      3.26s WALL (    2297 calls)
     fft          :      0.69s CPU      0.77s WALL (     426 calls)
     ffts         :      0.25s CPU      0.26s WALL (      61 calls)
     fftw         :     16.24s CPU     16.62s WALL (   90364 calls)
     interpolate  :      0.28s CPU      0.29s WALL (      31 calls)

     Parallel routines

     PWSCF        :   1m22.67s CPU   1m27.05s WALL


   This run was terminated on:  23:31:49  30Nov2025            

=------------------------------------------------------------------------------=
   JOB DONE.
=------------------------------------------------------------------------------=
