
     Program PWSCF v.7.1 starts on  1Dec2025 at  9:43:32 

     This program is part of the open-source Quantum ESPRESSO suite
     for quantum simulation of materials; please cite
         "P. Giannozzi et al., J. Phys.:Condens. Matter 21 395502 (2009);
         "P. Giannozzi et al., J. Phys.:Condens. Matter 29 465901 (2017);
         "P. Giannozzi et al., J. Chem. Phys. 152 154105 (2020);
          URL http://www.quantum-espresso.org", 
     in publications or presentations arising from this work. More details at
     http://www.quantum-espresso.org/quote

     Parallel version (MPI & OpenMP), running on      16 processor cores
     Number of MPI processes:                16
     Threads/MPI process:                     1

     MPI processes distributed on     1 nodes
     113248 MiB available memory on the printing compute node when the environment starts

     Waiting for input...
     Reading input from standard input

     Current dimensions of program PWSCF are:
     Max number of different atomic species (ntypx) = 10
     Max number of k-points (npk) =  40000
     Max angular momentum in pseudopotentials (lmaxx) =  4

     File ./K4ZrSnO6.update deleted, as requested

     File ./K4ZrSnO6.bfgs deleted, as requested
     Message from routine read_pp_mesh:
     mismatch in mesh size, discarding the one in header
     Message from routine read_pp_mesh:
     mismatch in mesh size, discarding the one in header
     Message from routine read_pp_mesh:
     mismatch in mesh size, discarding the one in header
     Message from routine read_pp_mesh:
     mismatch in mesh size, discarding the one in header
     Message from routine read_pp_mesh:
     mismatch in mesh size, discarding the one in header
     Message from routine setup:
     using ibrav=0 with symmetry is DISCOURAGED, use correct ibrav instead

     R & G space division:  proc/nbgrp/npool/nimage =      16
     Subspace diagonalization in iterative solution of the eigenvalue problem:
     a serial algorithm will be used


     Parallelization info
     --------------------
     sticks:   dense  smooth     PW     G-vecs:    dense   smooth      PW
     Min         455     228     61                28785    10185    1441
     Max         456     229     62                28789    10188    1445
     Sum        7295    3649    989               460603   162985   23085

     Using Slab Decomposition



     bravais-lattice index     =            0
     lattice parameter (alat)  =      13.6939  a.u.
     unit-cell volume          =    2594.3274 (a.u.)^3
     number of atoms/cell      =           12
     number of atomic types    =            5
     number of electrons       =        98.00
     number of Kohn-Sham states=           49
     kinetic-energy cutoff     =      60.0000  Ry
     charge density cutoff     =     480.0000  Ry
     scf convergence threshold =      1.0E-10
     mixing beta               =       0.7000
     number of iterations used =            8  plain     mixing
     energy convergence thresh.=      1.0E-04
     force convergence thresh. =      1.0E-05
     press convergence thresh. =      5.0E-01
     Exchange-correlation= SLA PW PBX PBC
                           (   1   4   3   4   0   0   0)
     nstep                     =          300


     celldm(1)=  13.693912  celldm(2)=   0.000000  celldm(3)=   0.000000
     celldm(4)=   0.000000  celldm(5)=   0.000000  celldm(6)=   0.000000

     crystal axes: (cart. coord. in units of alat)
               a(1) = (   0.997460   0.032610   0.063323 )  
               a(2) = (   0.032826   1.021560   0.032826 )  
               a(3) = (   0.063323   0.032610   0.997460 )  

     reciprocal axes: (cart. coord. in units 2 pi/alat)
               b(1) = (  1.007536 -0.030352 -0.062970 )  
               b(2) = ( -0.030152  0.980833 -0.030152 )  
               b(3) = ( -0.062970 -0.030352  1.007536 )  


     PseudoPot. # 1 for Na read from file:
     ./Na.upf
     MD5 check sum: b8e483bdca8edababda73ba53cc0c4c9
     Pseudo is Projector augmented-wave + core cor, Zval =  9.0
     Generated using ATOMPAW code
     Shape of augmentation charge: SINC**2
     Using radial grid of 2342 points,  4 beta functions with: 
                l(1) =   0
                l(2) =   0
                l(3) =   1
                l(4) =   1
     Q(r) pseudized with 0 coefficients 


     PseudoPot. # 2 for K  read from file:
     ./K.upf
     MD5 check sum: 9356cfae17991a8ac93a0af773ad5d28
     Pseudo is Projector augmented-wave + core cor, Zval =  9.0
     Generated using ATOMPAW code
     Shape of augmentation charge: SINC**2
     Using radial grid of 2342 points,  5 beta functions with: 
                l(1) =   0
                l(2) =   0
                l(3) =   1
                l(4) =   1
                l(5) =   2
     Q(r) pseudized with 0 coefficients 


     PseudoPot. # 3 for Zr read from file:
     ./Zr.upf
     MD5 check sum: 10be9e9715c592225794718718b87d8f
     Pseudo is Projector augmented-wave + core cor, Zval = 12.0
     Generated using ATOMPAW code
     Shape of augmentation charge: BESSEL
     Using radial grid of 2342 points,  6 beta functions with: 
                l(1) =   0
                l(2) =   0
                l(3) =   1
                l(4) =   1
                l(5) =   2
                l(6) =   2
     Q(r) pseudized with 0 coefficients 


     PseudoPot. # 4 for Sn read from file:
     ./Sn.upf
     MD5 check sum: f8d5c2bd65c7f969f3af92fc3a9f2821
     Pseudo is Projector augmented-wave + core cor, Zval = 14.0
     Generated using ATOMPAW code
     Shape of augmentation charge: BESSEL
     Using radial grid of 2342 points,  6 beta functions with: 
                l(1) =   0
                l(2) =   0
                l(3) =   1
                l(4) =   1
                l(5) =   2
                l(6) =   2
     Q(r) pseudized with 0 coefficients 


     PseudoPot. # 5 for O  read from file:
     ./O.upf
     MD5 check sum: 45fbb1c0d1f8837f1e386a2947d3aa26
     Pseudo is Projector augmented-wave + core cor, Zval =  6.0
     Generated using ATOMPAW code
     Shape of augmentation charge: SINC**2
     Using radial grid of 2342 points,  4 beta functions with: 
                l(1) =   0
                l(2) =   0
                l(3) =   1
                l(4) =   1
     Q(r) pseudized with 0 coefficients 


     atomic species   valence    mass     pseudopotential
        Na             9.00    22.96000     Na( 1.00)
        K              9.00    39.09800     K ( 1.00)
        Zr            12.00    91.22400     Zr( 1.00)
        Sn            14.00   118.71000     Sn( 1.00)
        O              6.00    15.99900     O ( 1.00)

      2 Sym. Ops. (no inversion) found



   Cartesian axes

     site n.     atom                  positions (alat units)
         1           K   tau(   1) = (  -0.0038210   0.0023066  -0.0038210  )
         2           Na  tau(   2) = (   0.5157244   0.5343662   0.0385537  )
         3           K   tau(   3) = (   0.5328020   0.0268910   0.5328020  )
         4           Na  tau(   4) = (   0.0385537   0.5343662   0.5157244  )
         5           Zr  tau(   5) = (   0.2460918   0.2463631   0.2460918  )
         6           Sn  tau(   6) = (   0.8394972   0.8170481   0.8394972  )
         7           O   tau(   7) = (   0.3768453   0.0887771   0.0884275  )
         8           O   tau(   8) = (   0.6238351  -0.0521992  -0.0238128  )
         9           O   tau(   9) = (   0.0882856   0.3717699   0.0882856  )
        10           O   tau(  10) = (  -0.0416011   0.6540701  -0.0416011  )
        11           O   tau(  11) = (   0.0884275   0.0887771   0.3768453  )
        12           O   tau(  12) = (  -0.0238128  -0.0521992   0.6238351  )

     number of k points=    39
                       cart. coord. in units 2pi/alat
        k(    1) = (   0.0000000   0.0000000   0.0000000), wk =   0.0160000
        k(    2) = (  -0.0125941  -0.0060704   0.2015072), wk =   0.0640000
        k(    3) = (  -0.0251882  -0.0121408   0.4030145), wk =   0.0640000
        k(    4) = (  -0.0060304   0.1961666  -0.0060304), wk =   0.0320000
        k(    5) = (  -0.0186245   0.1900962   0.1954769), wk =   0.0640000
        k(    6) = (  -0.0312186   0.1840258   0.3969841), wk =   0.0640000
        k(    7) = (   0.0191578   0.2083074  -0.4090449), wk =   0.0640000
        k(    8) = (   0.0065637   0.2022370  -0.2075376), wk =   0.0640000
        k(    9) = (  -0.0120607   0.3923332  -0.0120607), wk =   0.0320000
        k(   10) = (  -0.0246548   0.3862628   0.1894465), wk =   0.0640000
        k(   11) = (  -0.0372489   0.3801924   0.3909538), wk =   0.0640000
        k(   12) = (   0.0131275   0.4044740  -0.4150752), wk =   0.0640000
        k(   13) = (   0.0005334   0.3984036  -0.2135680), wk =   0.0640000
        k(   14) = (   0.1889131  -0.0121408   0.1889131), wk =   0.0320000
        k(   15) = (   0.1763191  -0.0182111   0.3904204), wk =   0.0640000
        k(   16) = (   0.2266954   0.0060704  -0.4156086), wk =   0.0640000
        k(   17) = (   0.2141013  -0.0000000  -0.2141013), wk =   0.0320000
        k(   18) = (   0.1828828   0.1840258   0.1828828), wk =   0.0320000
        k(   19) = (   0.1702887   0.1779555   0.3843900), wk =   0.0640000
        k(   20) = (   0.2206651   0.2022370  -0.4216389), wk =   0.0640000
        k(   21) = (   0.2080710   0.1961666  -0.2201317), wk =   0.0640000
        k(   22) = (   0.1768524   0.3801924   0.1768524), wk =   0.0320000
        k(   23) = (   0.1642583   0.3741221   0.3783597), wk =   0.0640000
        k(   24) = (   0.2146347   0.3984036  -0.4276693), wk =   0.0640000
        k(   25) = (   0.2020406   0.3923332  -0.2261621), wk =   0.0640000
        k(   26) = (   0.2009739  -0.4044740   0.2009739), wk =   0.0320000
        k(   27) = (   0.1883798  -0.4105443   0.4024811), wk =   0.0640000
        k(   28) = (   0.2387562  -0.3862628  -0.4035478), wk =   0.0640000
        k(   29) = (   0.1949435  -0.2083074   0.1949435), wk =   0.0320000
        k(   30) = (   0.1823494  -0.2143777   0.3964508), wk =   0.0640000
        k(   31) = (   0.2327258  -0.1900962  -0.4095782), wk =   0.0640000
        k(   32) = (   0.3778263  -0.0242815   0.3778263), wk =   0.0320000
        k(   33) = (   0.4282027   0.0000000  -0.4282027), wk =   0.0320000
        k(   34) = (   0.3717959   0.1718851   0.3717959), wk =   0.0320000
        k(   35) = (   0.4221723   0.1961666  -0.4342330), wk =   0.0640000
        k(   36) = (   0.3657656   0.3680517   0.3657656), wk =   0.0320000
        k(   37) = (   0.4161419   0.3923332  -0.4402634), wk =   0.0640000
        k(   38) = (   0.3898870  -0.4166147   0.3898870), wk =   0.0320000
        k(   39) = (   0.3838567  -0.2204481   0.3838567), wk =   0.0320000

     Dense  grid:   460603 G-vectors     FFT dimensions: (  96, 100,  96)

     Smooth grid:   162985 G-vectors     FFT dimensions: (  72,  72,  72)

     Estimated max dynamical RAM per process >     166.33 MB

     Estimated total dynamical RAM >       2.60 GB

     Initial potential from superposition of free atoms

     starting charge      97.9418, renormalised to      98.0000
     Starting wfcs are  126 randomized atomic wfcs
     Checking if some PAW data can be deallocated... 

     total cpu time spent up to now is       32.1 secs

     per-process dynamical memory:   115.5 Mb

     Self-consistent Calculation

     iteration #  1     ecut=    60.00 Ry     beta= 0.70
     Davidson diagonalization with overlap
     ethr =  1.00E-02,  avg # of iterations =  1.0

     total cpu time spent up to now is       40.8 secs

     total energy              =   -1439.52387325 Ry
     estimated scf accuracy    <       6.84551972 Ry

     iteration #  2     ecut=    60.00 Ry     beta= 0.70
     Davidson diagonalization with overlap
     ethr =  6.99E-03,  avg # of iterations =  6.9

     total cpu time spent up to now is       59.6 secs

     total energy              =   -1432.89092489 Ry
     estimated scf accuracy    <      80.63474123 Ry

     iteration #  3     ecut=    60.00 Ry     beta= 0.70
     Davidson diagonalization with overlap
     ethr =  6.99E-03,  avg # of iterations =  6.9

     total cpu time spent up to now is       76.9 secs

     total energy              =   -1443.51337335 Ry
     estimated scf accuracy    <       1.64648167 Ry

     iteration #  4     ecut=    60.00 Ry     beta= 0.70
     Davidson diagonalization with overlap
     ethr =  1.68E-03,  avg # of iterations =  5.9

     total cpu time spent up to now is       89.1 secs

     total energy              =   -1443.67639361 Ry
     estimated scf accuracy    <       0.89047383 Ry

     iteration #  5     ecut=    60.00 Ry     beta= 0.70
     Davidson diagonalization with overlap
     ethr =  9.09E-04,  avg # of iterations =  2.0

     total cpu time spent up to now is       98.3 secs

     total energy              =   -1443.64342157 Ry
     estimated scf accuracy    <       0.63450327 Ry

     iteration #  6     ecut=    60.00 Ry     beta= 0.70
     Davidson diagonalization with overlap
     ethr =  6.47E-04,  avg # of iterations =  1.8

     total cpu time spent up to now is      107.4 secs

     total energy              =   -1443.57090002 Ry
     estimated scf accuracy    <       0.50500312 Ry

     iteration #  7     ecut=    60.00 Ry     beta= 0.70
     Davidson diagonalization with overlap
     ethr =  5.15E-04,  avg # of iterations =  6.3

     total cpu time spent up to now is      119.1 secs

     total energy              =   -1443.57255233 Ry
     estimated scf accuracy    <       0.26092626 Ry

     iteration #  8     ecut=    60.00 Ry     beta= 0.70
     Davidson diagonalization with overlap
     ethr =  2.66E-04,  avg # of iterations =  2.5

     total cpu time spent up to now is      128.7 secs

     total energy              =   -1443.54531644 Ry
     estimated scf accuracy    <       0.13836988 Ry

     iteration #  9     ecut=    60.00 Ry     beta= 0.70
     Davidson diagonalization with overlap
     ethr =  1.41E-04,  avg # of iterations =  6.1

     total cpu time spent up to now is      142.6 secs

     total energy              =   -1443.55935742 Ry
     estimated scf accuracy    <       0.38844071 Ry

     iteration # 10     ecut=    60.00 Ry     beta= 0.70
     Davidson diagonalization with overlap
     ethr =  1.41E-04,  avg # of iterations =  5.5

     total cpu time spent up to now is      154.8 secs

     total energy              =   -1443.56948561 Ry
     estimated scf accuracy    <       0.07612353 Ry

     iteration # 11     ecut=    60.00 Ry     beta= 0.70
     Davidson diagonalization with overlap
     ethr =  7.77E-05,  avg # of iterations =  5.8

     total cpu time spent up to now is      165.9 secs

     total energy              =   -1443.56217370 Ry
     estimated scf accuracy    <       0.07464439 Ry

     iteration # 12     ecut=    60.00 Ry     beta= 0.70
     Davidson diagonalization with overlap
     ethr =  7.62E-05,  avg # of iterations =  7.0

     total cpu time spent up to now is      178.0 secs

     total energy              =   -1443.56885147 Ry
     estimated scf accuracy    <       0.01428294 Ry

     iteration # 13     ecut=    60.00 Ry     beta= 0.70
     Davidson diagonalization with overlap
     ethr =  1.46E-05,  avg # of iterations =  4.3

     total cpu time spent up to now is      189.6 secs

     total energy              =   -1443.56802665 Ry
     estimated scf accuracy    <       0.01907408 Ry

     iteration # 14     ecut=    60.00 Ry     beta= 0.70
     Davidson diagonalization with overlap
     ethr =  1.46E-05,  avg # of iterations =  3.2

     total cpu time spent up to now is      199.3 secs

     total energy              =   -1443.56673443 Ry
     estimated scf accuracy    <       0.00952693 Ry

     iteration # 15     ecut=    60.00 Ry     beta= 0.70
     Davidson diagonalization with overlap
     ethr =  9.72E-06,  avg # of iterations =  5.8

     total cpu time spent up to now is      211.8 secs

     total energy              =   -1443.56829485 Ry
     estimated scf accuracy    <       0.00251176 Ry

     iteration # 16     ecut=    60.00 Ry     beta= 0.70
     Davidson diagonalization with overlap
     ethr =  2.56E-06,  avg # of iterations =  1.1

     total cpu time spent up to now is      220.5 secs

     total energy              =   -1443.56784314 Ry
     estimated scf accuracy    <       0.00243102 Ry

     iteration # 17     ecut=    60.00 Ry     beta= 0.70
     Davidson diagonalization with overlap
     ethr =  2.48E-06,  avg # of iterations =  5.7

     total cpu time spent up to now is      232.2 secs

     total energy              =   -1443.56807271 Ry
     estimated scf accuracy    <       0.00013874 Ry

     iteration # 18     ecut=    60.00 Ry     beta= 0.70
     Davidson diagonalization with overlap
     ethr =  1.42E-07,  avg # of iterations =  6.4

     total cpu time spent up to now is      246.2 secs

     total energy              =   -1443.56807413 Ry
     estimated scf accuracy    <       0.00018101 Ry

     iteration # 19     ecut=    60.00 Ry     beta= 0.70
     Davidson diagonalization with overlap
     ethr =  1.42E-07,  avg # of iterations =  6.0

     total cpu time spent up to now is      258.6 secs

     total energy              =   -1443.56809598 Ry
     estimated scf accuracy    <       0.00001577 Ry

     iteration # 20     ecut=    60.00 Ry     beta= 0.70
     Davidson diagonalization with overlap
     ethr =  1.61E-08,  avg # of iterations =  4.9

     total cpu time spent up to now is      269.7 secs

     total energy              =   -1443.56809657 Ry
     estimated scf accuracy    <       0.00000331 Ry

     iteration # 21     ecut=    60.00 Ry     beta= 0.70
     Davidson diagonalization with overlap
     ethr =  3.38E-09,  avg # of iterations =  7.5

     total cpu time spent up to now is      283.0 secs

     total energy              =   -1443.56809711 Ry
     estimated scf accuracy    <       0.00000014 Ry

     iteration # 22     ecut=    60.00 Ry     beta= 0.70
     Davidson diagonalization with overlap
     ethr =  1.39E-10,  avg # of iterations =  7.3

     total cpu time spent up to now is      298.4 secs

     total energy              =   -1443.56809714 Ry
     estimated scf accuracy    <       0.00000004 Ry

     iteration # 23     ecut=    60.00 Ry     beta= 0.70
     Davidson diagonalization with overlap
     ethr =  4.32E-11,  avg # of iterations =  5.6

     total cpu time spent up to now is      311.8 secs

     total energy              =   -1443.56809715 Ry
     estimated scf accuracy    <       0.00000001 Ry

     iteration # 24     ecut=    60.00 Ry     beta= 0.70
     Davidson diagonalization with overlap
     ethr =  1.22E-11,  avg # of iterations =  6.6

     total cpu time spent up to now is      326.0 secs

     total energy              =   -1443.56809715 Ry
     estimated scf accuracy    <          7.0E-09 Ry

     iteration # 25     ecut=    60.00 Ry     beta= 0.70
     Davidson diagonalization with overlap
     ethr =  7.17E-12,  avg # of iterations =  5.2

     total cpu time spent up to now is      338.3 secs

     total energy              =   -1443.56809715 Ry
     estimated scf accuracy    <          2.0E-09 Ry

     iteration # 26     ecut=    60.00 Ry     beta= 0.70
     Davidson diagonalization with overlap
     ethr =  2.00E-12,  avg # of iterations =  5.9

     total cpu time spent up to now is      350.4 secs

     End of self-consistent calculation

          k = 0.0000 0.0000 0.0000 ( 20367 PWs)   bands (ev):

   -52.0688 -52.0688 -46.0185 -29.8825 -27.3256 -24.6754 -24.6740 -24.5966
   -24.0156 -24.0151 -23.9637 -23.9630 -23.9558 -23.9554 -19.1524 -19.1442
   -18.7245 -18.6899 -18.6877 -15.4137 -14.6029 -14.5001 -14.2830 -13.8795
   -13.8565 -13.4641 -13.2970 -13.2816 -10.8306 -10.8175 -10.7924  -4.2997
    -1.9245  -1.7084  -1.3922  -1.3668  -1.2574  -1.1245  -0.6617  -0.6081
     0.0281   0.1286   0.1907   0.2159   0.3158   0.5109   0.8287   1.0704
     1.1732

          k =-0.0126-0.0061 0.2015 ( 20358 PWs)   bands (ev):

   -52.0688 -52.0688 -46.0185 -29.8825 -27.3256 -24.6754 -24.6740 -24.5966
   -24.0155 -24.0151 -23.9637 -23.9630 -23.9557 -23.9554 -19.1524 -19.1442
   -18.7245 -18.6899 -18.6877 -15.4095 -14.6812 -14.4355 -14.2490 -13.8971
   -13.8633 -13.4628 -13.2966 -13.2807 -10.8315 -10.8195 -10.7926  -4.3040
    -1.8983  -1.7207  -1.4171  -1.3805  -1.2433  -1.1387  -0.6285  -0.5330
    -0.1260   0.0363   0.2153   0.3007   0.4030   0.4721   0.8668   1.0431
     1.1729

          k =-0.0252-0.0121 0.4030 ( 20347 PWs)   bands (ev):

   -52.0688 -52.0688 -46.0185 -29.8825 -27.3256 -24.6754 -24.6740 -24.5966
   -24.0155 -24.0151 -23.9636 -23.9631 -23.9556 -23.9555 -19.1524 -19.1442
   -18.7244 -18.6899 -18.6877 -15.4022 -14.7521 -14.3978 -14.1687 -13.9452
   -13.8694 -13.4607 -13.2960 -13.2793 -10.8337 -10.8220 -10.7929  -4.3109
    -1.8438  -1.7564  -1.4438  -1.4035  -1.2230  -1.1531  -0.5822  -0.4117
    -0.2292  -0.0724   0.2037   0.2409   0.4255   0.5913   0.9655   1.0345
     1.1614

          k =-0.0060 0.1962-0.0060 ( 20336 PWs)   bands (ev):

   -52.0688 -52.0688 -46.0185 -29.8825 -27.3256 -24.6754 -24.6740 -24.5966
   -24.0155 -24.0151 -23.9637 -23.9630 -23.9558 -23.9553 -19.1524 -19.1442
   -18.7244 -18.6899 -18.6877 -15.4109 -14.6030 -14.5467 -14.2175 -13.8794
   -13.8785 -13.4627 -13.2970 -13.2808 -10.8306 -10.8178 -10.7948  -4.3028
    -1.9309  -1.7269  -1.3941  -1.3519  -1.2424  -1.1356  -0.5906  -0.5807
    -0.0274   0.0450   0.1528   0.1999   0.4400   0.4707   0.8589   1.0396
     1.2446

          k =-0.0186 0.1901 0.1955 ( 20346 PWs)   bands (ev):

   -52.0688 -52.0688 -46.0185 -29.8825 -27.3256 -24.6754 -24.6740 -24.5966
   -24.0155 -24.0151 -23.9637 -23.9630 -23.9557 -23.9554 -19.1524 -19.1442
   -18.7245 -18.6899 -18.6877 -15.4101 -14.6812 -14.4400 -14.2482 -13.8978
   -13.8542 -13.4643 -13.2966 -13.2815 -10.8315 -10.8198 -10.7951  -4.3059
    -1.9017  -1.7329  -1.4080  -1.3781  -1.2236  -1.1467  -0.6412  -0.5256
    -0.1284   0.0251   0.2189   0.2973   0.4119   0.4755   0.9251   1.0422
     1.1842

          k =-0.0312 0.1840 0.3970 ( 20361 PWs)   bands (ev):

   -52.0688 -52.0688 -46.0185 -29.8825 -27.3256 -24.6754 -24.6740 -24.5966
   -24.0155 -24.0151 -23.9636 -23.9631 -23.9556 -23.9555 -19.1524 -19.1442
   -18.7244 -18.6899 -18.6877 -15.4041 -14.7489 -14.3906 -14.1944 -13.9354
   -13.8565 -13.4630 -13.2960 -13.2806 -10.8338 -10.8224 -10.7953  -4.3141
    -1.8284  -1.7589  -1.4254  -1.4084  -1.2254  -1.1583  -0.6039  -0.4269
    -0.2575  -0.0509   0.1448   0.3530   0.4171   0.5607   0.9848   1.0685
     1.1520

          k = 0.0192 0.2083-0.4090 ( 20339 PWs)   bands (ev):

   -52.0688 -52.0688 -46.0185 -29.8825 -27.3256 -24.6754 -24.6740 -24.5966
   -24.0155 -24.0151 -23.9636 -23.9631 -23.9556 -23.9555 -19.1524 -19.1442
   -18.7244 -18.6899 -18.6877 -15.4012 -14.7560 -14.4192 -14.1179 -13.9730
   -13.8662 -13.4607 -13.2960 -13.2793 -10.8338 -10.8223 -10.7953  -4.3161
    -1.8306  -1.7471  -1.4350  -1.4014  -1.2382  -1.1524  -0.5496  -0.3868
    -0.2603  -0.1090   0.0719   0.2721   0.4718   0.6271   0.9467   1.0487
     1.1692

          k = 0.0066 0.2022-0.2075 ( 20350 PWs)   bands (ev):

   -52.0688 -52.0688 -46.0185 -29.8825 -27.3256 -24.6754 -24.6740 -24.5966
   -24.0155 -24.0151 -23.9637 -23.9630 -23.9557 -23.9554 -19.1524 -19.1442
   -18.7244 -18.6899 -18.6877 -15.4055 -14.6928 -14.4820 -14.1525 -13.9322
   -13.8721 -13.4606 -13.2966 -13.2794 -10.8315 -10.8197 -10.7950  -4.3093
    -1.8971  -1.7232  -1.4197  -1.3596  -1.2618  -1.1330  -0.5709  -0.4471
    -0.1792  -0.0399   0.0796   0.2790   0.4450   0.5361   0.9050   1.0024
     1.2000

          k =-0.0121 0.3923-0.0121 ( 20365 PWs)   bands (ev):

   -52.0688 -52.0688 -46.0185 -29.8825 -27.3256 -24.6754 -24.6740 -24.5966
   -24.0156 -24.0151 -23.9637 -23.9630 -23.9558 -23.9554 -19.1524 -19.1442
   -18.7245 -18.6899 -18.6877 -15.4062 -14.6031 -14.5991 -14.1187 -13.9301
   -13.8792 -13.4605 -13.2970 -13.2795 -10.8306 -10.8183 -10.7987  -4.3079
    -1.9413  -1.7577  -1.3966  -1.3094  -1.2504  -1.1253  -0.5622  -0.4255
    -0.1005  -0.0504   0.0610   0.1403   0.4350   0.5927   0.9717   1.0092
     1.2333

          k =-0.0247 0.3863 0.1894 ( 20353 PWs)   bands (ev):

   -52.0688 -52.0688 -46.0185 -29.8825 -27.3256 -24.6754 -24.6740 -24.5966
   -24.0155 -24.0151 -23.9637 -23.9631 -23.9557 -23.9554 -19.1524 -19.1442
   -18.7245 -18.6899 -18.6877 -15.4066 -14.6929 -14.4865 -14.1571 -13.9243
   -13.8630 -13.4629 -13.2966 -13.2807 -10.8315 -10.8204 -10.7988  -4.3122
    -1.9011  -1.7474  -1.4125  -1.3519  -1.2028  -1.1640  -0.5819  -0.4440
    -0.1828  -0.0696   0.0875   0.2828   0.4470   0.5470   0.9910   1.0505
     1.1990

          k =-0.0372 0.3802 0.3910 ( 20378 PWs)   bands (ev):

   -52.0688 -52.0688 -46.0185 -29.8825 -27.3256 -24.6754 -24.6740 -24.5966
   -24.0155 -24.0151 -23.9636 -23.9632 -23.9556 -23.9555 -19.1525 -19.1442
   -18.7244 -18.6899 -18.6877 -15.4043 -14.7509 -14.4113 -14.1633 -13.9480
   -13.8468 -13.4645 -13.2960 -13.2814 -10.8339 -10.8230 -10.7989  -4.3212
    -1.8052  -1.7461  -1.4362  -1.4077  -1.2096  -1.1540  -0.6282  -0.4343
    -0.2499  -0.1139   0.1908   0.2693   0.4133   0.6102   0.9677   1.1101
     1.1920

          k = 0.0131 0.4045-0.4151 ( 20340 PWs)   bands (ev):

   -52.0688 -52.0688 -46.0185 -29.8825 -27.3256 -24.6754 -24.6740 -24.5966
   -24.0155 -24.0151 -23.9636 -23.9631 -23.9556 -23.9555 -19.1525 -19.1442
   -18.7244 -18.6899 -18.6877 -15.4025 -14.7553 -14.4262 -14.1177 -13.9714
   -13.8538 -13.4630 -13.2960 -13.2806 -10.8339 -10.8230 -10.7989  -4.3225
    -1.8113  -1.7350  -1.4417  -1.3998  -1.2134  -1.1607  -0.5718  -0.4287
    -0.2591  -0.1434   0.1036   0.2580   0.4744   0.6374   0.9441   1.1063
     1.1808

          k = 0.0005 0.3984-0.2136 ( 20342 PWs)   bands (ev):

   -52.0688 -52.0688 -46.0185 -29.8825 -27.3256 -24.6754 -24.6740 -24.5966
   -24.0155 -24.0151 -23.9637 -23.9631 -23.9557 -23.9554 -19.1524 -19.1442
   -18.7245 -18.6899 -18.6877 -15.4037 -14.7008 -14.5025 -14.0902 -13.9666
   -13.8703 -13.4606 -13.2966 -13.2794 -10.8315 -10.8203 -10.7988  -4.3143
    -1.8993  -1.7420  -1.4207  -1.3195  -1.2654  -1.1309  -0.5370  -0.3541
    -0.2487  -0.1205   0.0360   0.2211   0.4735   0.6189   0.9467   1.0467
     1.1934

          k = 0.1889-0.0121 0.1889 ( 20342 PWs)   bands (ev):

   -52.0688 -52.0688 -46.0185 -29.8825 -27.3256 -24.6754 -24.6740 -24.5966
   -24.0155 -24.0151 -23.9637 -23.9630 -23.9558 -23.9553 -19.1524 -19.1442
   -18.7244 -18.6899 -18.6877 -15.4163 -14.6071 -14.5368 -14.2125 -13.8894
   -13.8744 -13.4608 -13.2963 -13.2794 -10.8321 -10.8219 -10.7928  -4.3046
    -1.9215  -1.7002  -1.3979  -1.3573  -1.3083  -1.1255  -0.6040  -0.5697
    -0.0547   0.0821   0.1644   0.1716   0.4502   0.4780   0.9206   1.0423
     1.2404

          k = 0.1763-0.0182 0.3904 ( 20371 PWs)   bands (ev):

   -52.0688 -52.0688 -46.0185 -29.8825 -27.3256 -24.6754 -24.6740 -24.5966
   -24.0155 -24.0151 -23.9637 -23.9631 -23.9558 -23.9554 -19.1524 -19.1442
   -18.7244 -18.6899 -18.6877 -15.4126 -14.6918 -14.4788 -14.1485 -13.9314
   -13.8694 -13.4610 -13.2957 -13.2795 -10.8338 -10.8248 -10.7931  -4.3121
    -1.8998  -1.7003  -1.4362  -1.3552  -1.3013  -1.1218  -0.5761  -0.4556
    -0.1870  -0.0301   0.0799   0.2625   0.4541   0.5447   0.9975   1.0702
     1.1985

          k = 0.2267 0.0061-0.4156 ( 20371 PWs)   bands (ev):

   -52.0688 -52.0688 -46.0185 -29.8825 -27.3256 -24.6754 -24.6740 -24.5966
   -24.0155 -24.0151 -23.9636 -23.9631 -23.9557 -23.9555 -19.1524 -19.1442
   -18.7244 -18.6899 -18.6877 -15.4031 -14.7560 -14.4186 -14.1209 -13.9677
   -13.8629 -13.4632 -13.2957 -13.2809 -10.8339 -10.8247 -10.7931  -4.3161
    -1.8511  -1.7373  -1.4466  -1.3877  -1.2650  -1.1114  -0.5546  -0.4003
    -0.2372  -0.1049   0.0658   0.2517   0.4752   0.6292   0.9395   1.0717
     1.1339

          k = 0.2141-0.0000-0.2141 ( 20376 PWs)   bands (ev):

   -52.0688 -52.0688 -46.0185 -29.8825 -27.3256 -24.6754 -24.6740 -24.5966
   -24.0155 -24.0151 -23.9636 -23.9632 -23.9556 -23.9555 -19.1524 -19.1442
   -18.7245 -18.6899 -18.6877 -15.4011 -14.7502 -14.3880 -14.1984 -13.9356
   -13.8575 -13.4644 -13.2963 -13.2817 -10.8322 -10.8216 -10.7928  -4.3112
    -1.8316  -1.7696  -1.4260  -1.4128  -1.2197  -1.1315  -0.6006  -0.4320
    -0.2401  -0.0426   0.1427   0.3383   0.4118   0.5551   0.9099   0.9990
     1.1400

          k = 0.1829 0.1840 0.1829 ( 20379 PWs)   bands (ev):

   -52.0688 -52.0688 -46.0185 -29.8825 -27.3256 -24.6754 -24.6740 -24.5966
   -24.0156 -24.0151 -23.9638 -23.9630 -23.9558 -23.9553 -19.1524 -19.1442
   -18.7245 -18.6899 -18.6877 -15.4204 -14.6072 -14.4937 -14.2807 -13.8743
   -13.8547 -13.4630 -13.2963 -13.2807 -10.8321 -10.8223 -10.7953  -4.3012
    -1.9377  -1.7360  -1.3868  -1.3546  -1.3130  -1.0809  -0.6544  -0.6132
     0.0264   0.1356   0.1999   0.2220   0.3249   0.5449   0.9816   1.0714
     1.1787

          k = 0.1703 0.1780 0.3844 ( 20388 PWs)   bands (ev):

   -52.0688 -52.0688 -46.0185 -29.8825 -27.3256 -24.6754 -24.6740 -24.5966
   -24.0156 -24.0151 -23.9637 -23.9631 -23.9558 -23.9554 -19.1524 -19.1442
   -18.7245 -18.6899 -18.6877 -15.4184 -14.6805 -14.4334 -14.2438 -13.8912
   -13.8633 -13.4609 -13.2957 -13.2794 -10.8339 -10.8253 -10.7954  -4.3071
    -1.9110  -1.7321  -1.4199  -1.3650  -1.3214  -1.0873  -0.6247  -0.5356
    -0.1309   0.0432   0.2200   0.3157   0.4051   0.4775   1.0444   1.0854
     1.1835

          k = 0.2207 0.2022-0.4216 ( 20364 PWs)   bands (ev):

   -52.0688 -52.0688 -46.0185 -29.8825 -27.3256 -24.6754 -24.6740 -24.5966
   -24.0155 -24.0151 -23.9636 -23.9632 -23.9557 -23.9555 -19.1525 -19.1442
   -18.7244 -18.6899 -18.6877 -15.4065 -14.7504 -14.4013 -14.1643 -13.9441
   -13.8642 -13.4608 -13.2957 -13.2795 -10.8339 -10.8251 -10.7954  -4.3153
    -1.8459  -1.7414  -1.4529  -1.3939  -1.2637  -1.1140  -0.6000  -0.4315
    -0.2259  -0.0793   0.1954   0.2518   0.4307   0.5958   0.9677   1.0735
     1.1674

          k = 0.2081 0.1962-0.2201 ( 20352 PWs)   bands (ev):

   -52.0688 -52.0688 -46.0185 -29.8825 -27.3256 -24.6754 -24.6740 -24.5966
   -24.0155 -24.0151 -23.9636 -23.9631 -23.9556 -23.9555 -19.1524 -19.1442
   -18.7244 -18.6899 -18.6877 -15.4011 -14.7522 -14.4038 -14.1675 -13.9475
   -13.8591 -13.4629 -13.2963 -13.2808 -10.8322 -10.8219 -10.7952  -4.3145
    -1.8201  -1.7602  -1.4420  -1.4092  -1.2187  -1.1298  -0.6048  -0.4288
    -0.2312  -0.0926   0.1995   0.2575   0.4079   0.5993   0.9609   0.9782
     1.1714

          k = 0.1769 0.3802 0.1769 ( 20368 PWs)   bands (ev):

   -52.0688 -52.0688 -46.0185 -29.8825 -27.3256 -24.6754 -24.6740 -24.5966
   -24.0156 -24.0151 -23.9637 -23.9630 -23.9558 -23.9553 -19.1524 -19.1442
   -18.7244 -18.6899 -18.6877 -15.4177 -14.6074 -14.5440 -14.2179 -13.8741
   -13.8646 -13.4646 -13.2963 -13.2815 -10.8321 -10.8229 -10.7989  -4.3060
    -1.9515  -1.7692  -1.3848  -1.3408  -1.2514  -1.0993  -0.5970  -0.5742
    -0.0102   0.0347   0.1557   0.1876   0.4489   0.4842   1.0388   1.0583
     1.2323

          k = 0.1643 0.3741 0.3784 ( 20361 PWs)   bands (ev):

   -52.0688 -52.0688 -46.0185 -29.8825 -27.3256 -24.6754 -24.6740 -24.5966
   -24.0156 -24.0151 -23.9637 -23.9630 -23.9558 -23.9554 -19.1524 -19.1442
   -18.7244 -18.6899 -18.6877 -15.4194 -14.6805 -14.4410 -14.2421 -13.8920
   -13.8490 -13.4632 -13.2957 -13.2808 -10.8339 -10.8260 -10.7990  -4.3101
    -1.9139  -1.7603  -1.3998  -1.3593  -1.3162  -1.0682  -0.6438  -0.5147
    -0.1293   0.0228   0.2297   0.2999   0.4044   0.4773   1.0428   1.0990
     1.1987

          k = 0.2146 0.3984-0.4277 ( 20359 PWs)   bands (ev):

   -52.0688 -52.0688 -46.0185 -29.8825 -27.3256 -24.6754 -24.6740 -24.5966
   -24.0155 -24.0151 -23.9636 -23.9631 -23.9557 -23.9554 -19.1525 -19.1442
   -18.7244 -18.6899 -18.6877 -15.4094 -14.7466 -14.3939 -14.1873 -13.9347
   -13.8560 -13.4607 -13.2957 -13.2795 -10.8340 -10.8258 -10.7990  -4.3187
    -1.8217  -1.7505  -1.4248  -1.4033  -1.2841  -1.1296  -0.6245  -0.3938
    -0.2866  -0.0522   0.1470   0.3539   0.4196   0.5641   0.9898   1.1028
     1.1822

          k = 0.2020 0.3923-0.2262 ( 20366 PWs)   bands (ev):

   -52.0688 -52.0688 -46.0185 -29.8825 -27.3256 -24.6754 -24.6740 -24.5966
   -24.0155 -24.0151 -23.9636 -23.9632 -23.9556 -23.9555 -19.1525 -19.1442
   -18.7245 -18.6899 -18.6877 -15.4011 -14.7553 -14.4235 -14.1157 -13.9749
   -13.8613 -13.4606 -13.2963 -13.2795 -10.8322 -10.8226 -10.7989  -4.3200
    -1.8053  -1.7447  -1.4402  -1.4086  -1.2139  -1.1677  -0.5671  -0.4075
    -0.2668  -0.1275   0.0946   0.2710   0.4722   0.6316   0.9437   1.0774
     1.1760

          k = 0.2010-0.4045 0.2010 ( 20349 PWs)   bands (ev):

   -52.0688 -52.0688 -46.0185 -29.8825 -27.3256 -24.6754 -24.6740 -24.5966
   -24.0156 -24.0151 -23.9637 -23.9630 -23.9558 -23.9553 -19.1524 -19.1442
   -18.7244 -18.6899 -18.6877 -15.4118 -14.6074 -14.5947 -14.1218 -13.9182
   -13.8741 -13.4632 -13.2963 -13.2807 -10.8321 -10.8229 -10.7989  -4.3124
    -1.9447  -1.7597  -1.3936  -1.3331  -1.2061  -1.1316  -0.5771  -0.4282
    -0.1016  -0.0720   0.0511   0.1469   0.4397   0.6020   0.9715   1.0551
     1.2335

          k = 0.1884-0.4105 0.4025 ( 20369 PWs)   bands (ev):

   -52.0688 -52.0688 -46.0185 -29.8825 -27.3256 -24.6754 -24.6740 -24.5966
   -24.0156 -24.0151 -23.9637 -23.9631 -23.9557 -23.9554 -19.1524 -19.1442
   -18.7244 -18.6899 -18.6877 -15.4142 -14.6919 -14.4865 -14.1553 -13.9177
   -13.8560 -13.4649 -13.2957 -13.2816 -10.8339 -10.8259 -10.7990  -4.3170
    -1.9097  -1.7480  -1.4152  -1.3496  -1.2406  -1.1168  -0.6033  -0.4275
    -0.1995  -0.0650   0.0925   0.2581   0.4490   0.5598   0.9950   1.1107
     1.1966

          k = 0.2388-0.3863-0.4035 ( 20364 PWs)   bands (ev):

   -52.0688 -52.0688 -46.0185 -29.8825 -27.3256 -24.6754 -24.6740 -24.5966
   -24.0155 -24.0151 -23.9636 -23.9631 -23.9557 -23.9555 -19.1525 -19.1442
   -18.7244 -18.6899 -18.6877 -15.4078 -14.7497 -14.4097 -14.1610 -13.9457
   -13.8504 -13.4632 -13.2957 -13.2808 -10.8340 -10.8258 -10.7990  -4.3216
    -1.8224  -1.7375  -1.4434  -1.3971  -1.2597  -1.1160  -0.6264  -0.4381
    -0.2362  -0.1013   0.1839   0.2660   0.4191   0.6074   0.9687   1.1222
     1.1858

          k = 0.1949-0.2083 0.1949 ( 20314 PWs)   bands (ev):

   -52.0688 -52.0688 -46.0185 -29.8825 -27.3256 -24.6754 -24.6740 -24.5966
   -24.0155 -24.0151 -23.9637 -23.9630 -23.9557 -23.9553 -19.1524 -19.1442
   -18.7244 -18.6899 -18.6877 -15.4108 -14.6072 -14.5913 -14.1102 -13.9407
   -13.8743 -13.4609 -13.2963 -13.2794 -10.8321 -10.8222 -10.7952  -4.3115
    -1.9259  -1.7143  -1.4024  -1.3445  -1.2773  -1.1086  -0.5793  -0.4429
    -0.1268  -0.0334   0.0523   0.1505   0.4272   0.5988   0.9584   0.9752
     1.2459

          k = 0.1823-0.2144 0.3965 ( 20355 PWs)   bands (ev):

   -52.0688 -52.0688 -46.0185 -29.8825 -27.3256 -24.6754 -24.6740 -24.5966
   -24.0155 -24.0151 -23.9637 -23.9630 -23.9558 -23.9554 -19.1524 -19.1442
   -18.7244 -18.6899 -18.6877 -15.4099 -14.6996 -14.5009 -14.0888 -13.9625
   -13.8653 -13.4634 -13.2957 -13.2808 -10.8339 -10.8252 -10.7954  -4.3182
    -1.9012  -1.7070  -1.4333  -1.3370  -1.2849  -1.1068  -0.5554  -0.3716
    -0.2555  -0.1139   0.0444   0.1966   0.4734   0.6270   0.9505   1.0890
     1.1948

          k = 0.2327-0.1901-0.4096 ( 20377 PWs)   bands (ev):

   -52.0688 -52.0688 -46.0185 -29.8825 -27.3256 -24.6754 -24.6740 -24.5966
   -24.0155 -24.0151 -23.9636 -23.9632 -23.9557 -23.9555 -19.1525 -19.1442
   -18.7244 -18.6899 -18.6877 -15.4039 -14.7556 -14.4230 -14.1205 -13.9668
   -13.8552 -13.4647 -13.2957 -13.2817 -10.8339 -10.8250 -10.7954  -4.3200
    -1.8412  -1.7294  -1.4491  -1.3889  -1.2572  -1.1039  -0.5715  -0.4288
    -0.2343  -0.1261   0.0887   0.2437   0.4750   0.6359   0.9404   1.1009
     1.1424

          k = 0.3778-0.0243 0.3778 ( 20372 PWs)   bands (ev):

   -52.0688 -52.0688 -46.0185 -29.8825 -27.3256 -24.6754 -24.6740 -24.5966
   -24.0156 -24.0151 -23.9637 -23.9630 -23.9558 -23.9553 -19.1524 -19.1442
   -18.7244 -18.6899 -18.6877 -15.4196 -14.6138 -14.5811 -14.1085 -13.9352
   -13.8662 -13.4638 -13.2952 -13.2811 -10.8345 -10.8289 -10.7933  -4.3181
    -1.9166  -1.6764  -1.4072  -1.4027  -1.2716  -1.0965  -0.5983  -0.4401
    -0.1539  -0.0800   0.0580   0.1638   0.4239   0.6126   0.9767   1.1216
     1.2524

          k = 0.4282 0.0000-0.4282 ( 20362 PWs)   bands (ev):

   -52.0688 -52.0688 -46.0185 -29.8825 -27.3256 -24.6754 -24.6740 -24.5966
   -24.0155 -24.0151 -23.9637 -23.9631 -23.9558 -23.9554 -19.1524 -19.1442
   -18.7244 -18.6899 -18.6877 -15.4140 -14.6989 -14.4992 -14.0878 -13.9600
   -13.8624 -13.4652 -13.2952 -13.2820 -10.8345 -10.8287 -10.7933  -4.3205
    -1.8994  -1.6824  -1.4487  -1.3490  -1.3026  -1.0851  -0.5557  -0.3807
    -0.2719  -0.1205   0.0514   0.1861   0.4720   0.6314   0.9529   1.1247
     1.1919

          k = 0.3718 0.1719 0.3718 ( 20387 PWs)   bands (ev):

   -52.0688 -52.0688 -46.0185 -29.8825 -27.3256 -24.6754 -24.6740 -24.5966
   -24.0156 -24.0151 -23.9637 -23.9630 -23.9558 -23.9553 -19.1524 -19.1442
   -18.7244 -18.6899 -18.6877 -15.4266 -14.6139 -14.5276 -14.2092 -13.8828
   -13.8661 -13.4613 -13.2952 -13.2798 -10.8345 -10.8294 -10.7956  -4.3088
    -1.9369  -1.7310  -1.4043  -1.3912  -1.3107  -1.0594  -0.6178  -0.5490
    -0.0573   0.0836   0.1573   0.1773   0.4549   0.4662   1.0432   1.1177
     1.2441

          k = 0.4222 0.1962-0.4342 ( 20394 PWs)   bands (ev):

   -52.0688 -52.0688 -46.0185 -29.8825 -27.3256 -24.6754 -24.6740 -24.5966
   -24.0156 -24.0151 -23.9637 -23.9631 -23.9558 -23.9554 -19.1525 -19.1442
   -18.7244 -18.6899 -18.6877 -15.4181 -14.6912 -14.4812 -14.1499 -13.9213
   -13.8608 -13.4637 -13.2952 -13.2812 -10.8345 -10.8292 -10.7956  -4.3168
    -1.9099  -1.7149  -1.4392  -1.3600  -1.2880  -1.0888  -0.5978  -0.4389
    -0.2032  -0.0408   0.0884   0.2487   0.4487   0.5579   0.9969   1.1234
     1.1900

          k = 0.3658 0.3681 0.3658 ( 20402 PWs)   bands (ev):

   -52.0688 -52.0688 -46.0185 -29.8825 -27.3256 -24.6754 -24.6740 -24.5966
   -24.0156 -24.0151 -23.9638 -23.9630 -23.9558 -23.9553 -19.1524 -19.1442
   -18.7244 -18.6899 -18.6877 -15.4313 -14.6141 -14.4837 -14.2752 -13.8658
   -13.8531 -13.4612 -13.2952 -13.2798 -10.8344 -10.8303 -10.7991  -4.3036
    -1.9606  -1.7810  -1.4214  -1.3766  -1.3326  -0.9462  -0.6481  -0.6257
     0.0339   0.1651   0.2120   0.2185   0.3416   0.4812   1.0728   1.1236
     1.2318

          k = 0.4161 0.3923-0.4403 ( 20356 PWs)   bands (ev):

   -52.0688 -52.0688 -46.0185 -29.8825 -27.3256 -24.6754 -24.6740 -24.5966
   -24.0156 -24.0151 -23.9637 -23.9630 -23.9558 -23.9553 -19.1524 -19.1442
   -18.7244 -18.6899 -18.6877 -15.4247 -14.6803 -14.4366 -14.2386 -13.8881
   -13.8552 -13.4611 -13.2952 -13.2798 -10.8345 -10.8302 -10.7991  -4.3108
    -1.9200  -1.7624  -1.4219  -1.3650  -1.3421  -1.0256  -0.6370  -0.5150
    -0.1289   0.0384   0.2352   0.3040   0.3993   0.4619   1.0447   1.1209
     1.1876

          k = 0.3899-0.4166 0.3899 ( 20381 PWs)   bands (ev):

   -52.0688 -52.0688 -46.0185 -29.8825 -27.3256 -24.6754 -24.6740 -24.5966
   -24.0156 -24.0151 -23.9637 -23.9630 -23.9558 -23.9553 -19.1524 -19.1442
   -18.7244 -18.6899 -18.6877 -15.4274 -14.6141 -14.5325 -14.2120 -13.8676
   -13.8659 -13.4637 -13.2952 -13.2811 -10.8345 -10.8302 -10.7991  -4.3097
    -1.9566  -1.7761  -1.3883  -1.3816  -1.2933  -1.0210  -0.6166  -0.5441
    -0.0247   0.0538   0.1631   0.1726   0.4510   0.4653   1.0411   1.1212
     1.2326

          k = 0.3839-0.2204 0.3839 ( 20363 PWs)   bands (ev):

   -52.0688 -52.0688 -46.0185 -29.8825 -27.3256 -24.6754 -24.6740 -24.5966
   -24.0156 -24.0151 -23.9637 -23.9630 -23.9558 -23.9553 -19.1524 -19.1442
   -18.7244 -18.6899 -18.6877 -15.4201 -14.6139 -14.5834 -14.1154 -13.9213
   -13.8661 -13.4653 -13.2952 -13.2819 -10.8345 -10.8293 -10.7956  -4.3186
    -1.9298  -1.7145  -1.4002  -1.3871  -1.2358  -1.0973  -0.5991  -0.4261
    -0.1355  -0.0999   0.0544   0.1626   0.4251   0.6143   0.9746   1.1296
     1.2453

     highest occupied level (ev):     1.2524

!    total energy              =   -1443.56809715 Ry
     total all-electron energy =     -1443.568097 Ry
     estimated scf accuracy    <          2.5E-11 Ry

     The total energy is the sum of the following terms:
     one-electron contribution =    -668.55804171 Ry
     hartree contribution      =     368.63556797 Ry
     xc contribution           =    -128.02277726 Ry
     ewald contribution        =    -293.43557002 Ry
     one-center paw contrib.   =    -722.18727613 Ry

     convergence has been achieved in  26 iterations

     Forces acting on atoms (cartesian axes, Ry/au):

     atom    1 type  2   force =    -0.00585022   -0.00549116   -0.00585022
     atom    2 type  1   force =    -0.00125613    0.00281829   -0.00733338
     atom    3 type  2   force =     0.00489559   -0.00523032    0.00489559
     atom    4 type  1   force =    -0.00733338    0.00281829   -0.00125613
     atom    5 type  3   force =     0.00758010    0.00771217    0.00758010
     atom    6 type  4   force =     0.00769440    0.00489687    0.00769440
     atom    7 type  5   force =     0.00235915    0.00447255    0.00219166
     atom    8 type  5   force =    -0.00250282   -0.01010490   -0.00780484
     atom    9 type  5   force =     0.00683867    0.00254961    0.00683867
     atom   10 type  5   force =    -0.00681218    0.00119097   -0.00681218
     atom   11 type  5   force =     0.00219166    0.00447255    0.00235915
     atom   12 type  5   force =    -0.00780484   -0.01010490   -0.00250282

     Total force =     0.034797     Total SCF correction =     0.000012


     Computing stress (Cartesian axis) and pressure

          total   stress  (Ry/bohr**3)                   (kbar)     P=        1.60
  -0.00000261  -0.00007675  -0.00005307           -0.38      -11.29       -7.81
  -0.00007675   0.00003780  -0.00007675          -11.29        5.56      -11.29
  -0.00005307  -0.00007675  -0.00000261           -7.81      -11.29       -0.38


     BFGS Geometry Optimization
     Energy error            =      0.0E+00 Ry
     Gradient error          =      1.0E-02 Ry/Bohr
     Cell gradient error     =      1.1E+01 kbar

     number of scf cycles    =   1
     number of bfgs steps    =   0

     enthalpy           new  =   -1443.5680971515 Ry

     new trust radius        =       0.0292702180 bohr
     new conv_thr            =            1.0E-10 Ry

     new unit-cell volume =   2596.41607 a.u.^3 (   384.74917 Ang^3 )
     density =      1.85603 g/cm^3

CELL_PARAMETERS (angstrom)
   7.226566697   0.221779836   0.448797169
   0.223338715   7.408821847   0.223338715
   0.448797169   0.221779836   7.226566697

ATOMIC_POSITIONS (angstrom)
K            -0.0307683878        0.0139398965       -0.0307683878
Na            3.7284930127        3.8697417983        0.2630904064
K             3.8577960862        0.1774536308        3.8577960862
Na            0.2630904064        3.8697417983        3.7284930127
Zr            1.7813951762        1.7841850789        1.7813951762
Sn            6.0676530782        5.9055729694        6.0676530782
O             2.7297908929        0.6398268340        0.6370441019
O             4.5199756275       -0.3923041458       -0.1819382580
O             0.6373138376        2.6954605294        0.6373138376
O            -0.3137378310        4.7460034779       -0.3137378310
O             0.6370441019        0.6398268340        2.7297908929
O            -0.1819382580       -0.3923041458        4.5199756275



     Writing config-only to output data dir ./K4ZrSnO6.save/
     NEW-OLD atomic charge density approx. for the potential
     extrapolated charge   98.07879, renormalised to   98.00000

     total cpu time spent up to now is      428.3 secs

     per-process dynamical memory:   140.9 Mb

     Self-consistent Calculation

     iteration #  1     ecut=    60.00 Ry     beta= 0.70
     Davidson diagonalization with overlap
     c_bands:  1 eigenvalues not converged
     c_bands:  1 eigenvalues not converged
     ethr =  1.00E-06,  avg # of iterations = 14.2

     total cpu time spent up to now is      451.4 secs

     total energy              =   -1443.56879856 Ry
     estimated scf accuracy    <       0.00270449 Ry

     iteration #  2     ecut=    60.00 Ry     beta= 0.70
     Davidson diagonalization with overlap
     ethr =  2.76E-06,  avg # of iterations =  6.9

     total cpu time spent up to now is      469.6 secs

     total energy              =   -1443.56764581 Ry
     estimated scf accuracy    <       0.04398832 Ry

     iteration #  3     ecut=    60.00 Ry     beta= 0.70
     Davidson diagonalization with overlap
     ethr =  2.76E-06,  avg # of iterations =  6.6

     total cpu time spent up to now is      485.9 secs

     total energy              =   -1443.57068773 Ry
     estimated scf accuracy    <       0.00417883 Ry

     iteration #  4     ecut=    60.00 Ry     beta= 0.70
     Davidson diagonalization with overlap
     ethr =  2.76E-06,  avg # of iterations =  6.1

     total cpu time spent up to now is      499.5 secs

     total energy              =   -1443.57070887 Ry
     estimated scf accuracy    <       0.01339811 Ry

     iteration #  5     ecut=    60.00 Ry     beta= 0.70
     Davidson diagonalization with overlap
     ethr =  2.76E-06,  avg # of iterations =  6.8

     total cpu time spent up to now is      512.8 secs

     total energy              =   -1443.57115211 Ry
     estimated scf accuracy    <       0.00131991 Ry

     iteration #  6     ecut=    60.00 Ry     beta= 0.70
     Davidson diagonalization with overlap
     ethr =  1.35E-06,  avg # of iterations =  2.2

     total cpu time spent up to now is      522.1 secs

     total energy              =   -1443.57110846 Ry
     estimated scf accuracy    <       0.00080286 Ry

     iteration #  7     ecut=    60.00 Ry     beta= 0.70
     Davidson diagonalization with overlap
     ethr =  8.19E-07,  avg # of iterations =  6.7

     total cpu time spent up to now is      534.1 secs

     total energy              =   -1443.57123864 Ry
     estimated scf accuracy    <       0.00005200 Ry

     iteration #  8     ecut=    60.00 Ry     beta= 0.70
     Davidson diagonalization with overlap
     ethr =  5.31E-08,  avg # of iterations =  5.3

     total cpu time spent up to now is      547.3 secs

     total energy              =   -1443.57124201 Ry
     estimated scf accuracy    <       0.00006451 Ry

     iteration #  9     ecut=    60.00 Ry     beta= 0.70
     Davidson diagonalization with overlap
     ethr =  5.31E-08,  avg # of iterations =  5.4

     total cpu time spent up to now is      559.6 secs

     total energy              =   -1443.57125033 Ry
     estimated scf accuracy    <       0.00000941 Ry

     iteration # 10     ecut=    60.00 Ry     beta= 0.70
     Davidson diagonalization with overlap
     ethr =  9.60E-09,  avg # of iterations =  6.2

     total cpu time spent up to now is      572.8 secs

     total energy              =   -1443.57125043 Ry
     estimated scf accuracy    <       0.00001886 Ry

     iteration # 11     ecut=    60.00 Ry     beta= 0.70
     Davidson diagonalization with overlap
     ethr =  9.60E-09,  avg # of iterations =  5.3

     total cpu time spent up to now is      584.9 secs

     total energy              =   -1443.57125055 Ry
     estimated scf accuracy    <       0.00000428 Ry

     iteration # 12     ecut=    60.00 Ry     beta= 0.70
     Davidson diagonalization with overlap
     ethr =  4.37E-09,  avg # of iterations =  6.0

     total cpu time spent up to now is      597.9 secs

     total energy              =   -1443.57125110 Ry
     estimated scf accuracy    <       0.00000087 Ry

     iteration # 13     ecut=    60.00 Ry     beta= 0.70
     Davidson diagonalization with overlap
     ethr =  8.90E-10,  avg # of iterations =  7.1

     total cpu time spent up to now is      610.4 secs

     total energy              =   -1443.57125117 Ry
     estimated scf accuracy    <       0.00000013 Ry

     iteration # 14     ecut=    60.00 Ry     beta= 0.70
     Davidson diagonalization with overlap
     ethr =  1.35E-10,  avg # of iterations =  7.2

     total cpu time spent up to now is      624.2 secs

     total energy              =   -1443.57125119 Ry
     estimated scf accuracy    <       0.00000010 Ry

     iteration # 15     ecut=    60.00 Ry     beta= 0.70
     Davidson diagonalization with overlap
     ethr =  1.01E-10,  avg # of iterations =  6.5

     total cpu time spent up to now is      636.3 secs

     total energy              =   -1443.57125120 Ry
     estimated scf accuracy    <       0.00000003 Ry

     iteration # 16     ecut=    60.00 Ry     beta= 0.70
     Davidson diagonalization with overlap
     ethr =  2.65E-11,  avg # of iterations =  3.6

     total cpu time spent up to now is      646.5 secs

     total energy              =   -1443.57125120 Ry
     estimated scf accuracy    <       0.00000001 Ry

     iteration # 17     ecut=    60.00 Ry     beta= 0.70
     Davidson diagonalization with overlap
     ethr =  1.09E-11,  avg # of iterations =  6.6

     total cpu time spent up to now is      659.7 secs

     total energy              =   -1443.57125120 Ry
     estimated scf accuracy    <          7.3E-09 Ry

     iteration # 18     ecut=    60.00 Ry     beta= 0.70
     Davidson diagonalization with overlap
     ethr =  7.44E-12,  avg # of iterations =  1.0

     total cpu time spent up to now is      668.4 secs

     total energy              =   -1443.57125120 Ry
     estimated scf accuracy    <          5.7E-09 Ry

     iteration # 19     ecut=    60.00 Ry     beta= 0.70
     Davidson diagonalization with overlap
     ethr =  5.84E-12,  avg # of iterations =  2.5

     total cpu time spent up to now is      677.9 secs

     total energy              =   -1443.57125120 Ry
     estimated scf accuracy    <          2.3E-09 Ry

     iteration # 20     ecut=    60.00 Ry     beta= 0.70
     Davidson diagonalization with overlap
     ethr =  2.31E-12,  avg # of iterations =  5.5

     total cpu time spent up to now is      689.6 secs

     total energy              =   -1443.57125120 Ry
     estimated scf accuracy    <          6.4E-10 Ry

     iteration # 21     ecut=    60.00 Ry     beta= 0.70
     Davidson diagonalization with overlap
     ethr =  6.50E-13,  avg # of iterations =  2.4

     total cpu time spent up to now is      699.0 secs

     total energy              =   -1443.57125120 Ry
     estimated scf accuracy    <          9.5E-10 Ry

     iteration # 22     ecut=    60.00 Ry     beta= 0.70
     Davidson diagonalization with overlap
     ethr =  6.50E-13,  avg # of iterations =  1.1

     total cpu time spent up to now is      707.7 secs

     total energy              =   -1443.57125120 Ry
     estimated scf accuracy    <          7.7E-10 Ry

     iteration # 23     ecut=    60.00 Ry     beta= 0.70
     Davidson diagonalization with overlap
     ethr =  6.50E-13,  avg # of iterations =  1.1

     total cpu time spent up to now is      716.5 secs

     total energy              =   -1443.57125120 Ry
     estimated scf accuracy    <          6.0E-10 Ry

     iteration # 24     ecut=    60.00 Ry     beta= 0.70
     Davidson diagonalization with overlap
     ethr =  6.09E-13,  avg # of iterations =  1.0

     total cpu time spent up to now is      725.2 secs

     total energy              =   -1443.57125120 Ry
     estimated scf accuracy    <          5.8E-10 Ry

     iteration # 25     ecut=    60.00 Ry     beta= 0.70
     Davidson diagonalization with overlap
     ethr =  5.87E-13,  avg # of iterations =  2.6

     total cpu time spent up to now is      734.7 secs

     total energy              =   -1443.57125120 Ry
     estimated scf accuracy    <          1.7E-10 Ry

     iteration # 26     ecut=    60.00 Ry     beta= 0.70
     Davidson diagonalization with overlap
     ethr =  1.73E-13,  avg # of iterations =  5.1

     total cpu time spent up to now is      745.9 secs

     End of self-consistent calculation

          k = 0.0000 0.0000 0.0000 ( 20367 PWs)   bands (ev):

   -52.0758 -52.0758 -46.0243 -29.8784 -27.3289 -24.6730 -24.6657 -24.5978
   -24.0234 -24.0229 -23.9704 -23.9696 -23.9623 -23.9619 -19.1884 -19.1826
   -18.7537 -18.7117 -18.7085 -15.4388 -14.5945 -14.4986 -14.2821 -13.8881
   -13.8683 -13.4609 -13.2924 -13.2765 -10.8319 -10.8217 -10.7969  -4.3118
    -1.9158  -1.7011  -1.3739  -1.3494  -1.2597  -1.1084  -0.6723  -0.6172
     0.0272   0.1098   0.1860   0.2181   0.3154   0.4998   0.8207   1.0518
     1.1499

          k =-0.0123-0.0057 0.2015 ( 20358 PWs)   bands (ev):

   -52.0758 -52.0758 -46.0243 -29.8784 -27.3289 -24.6730 -24.6657 -24.5978
   -24.0233 -24.0229 -23.9703 -23.9696 -23.9622 -23.9619 -19.1884 -19.1826
   -18.7537 -18.7117 -18.7085 -15.4352 -14.6716 -14.4344 -14.2484 -13.9060
   -13.8744 -13.4597 -13.2921 -13.2756 -10.8329 -10.8237 -10.7970  -4.3158
    -1.8902  -1.7139  -1.4033  -1.3632  -1.2410  -1.1233  -0.6387  -0.5431
    -0.1269   0.0317   0.2087   0.2913   0.3995   0.4613   0.8650   1.0248
     1.1497

          k =-0.0247-0.0114 0.4030 ( 20347 PWs)   bands (ev):

   -52.0758 -52.0758 -46.0243 -29.8784 -27.3288 -24.6731 -24.6658 -24.5978
   -24.0233 -24.0229 -23.9702 -23.9697 -23.9621 -23.9620 -19.1884 -19.1826
   -18.7537 -18.7117 -18.7085 -15.4292 -14.7402 -14.3973 -14.1683 -13.9550
   -13.8797 -13.4578 -13.2915 -13.2743 -10.8354 -10.8261 -10.7972  -4.3222
    -1.8363  -1.7504  -1.4359  -1.3844  -1.2144  -1.1413  -0.5921  -0.4217
    -0.2290  -0.0749   0.1866   0.2379   0.4185   0.5885   0.9463   1.0320
     1.1389

          k =-0.0057 0.1960-0.0057 ( 20336 PWs)   bands (ev):

   -52.0758 -52.0758 -46.0243 -29.8784 -27.3289 -24.6730 -24.6658 -24.5978
   -24.0234 -24.0229 -23.9703 -23.9696 -23.9623 -23.9618 -19.1884 -19.1826
   -18.7537 -18.7117 -18.7085 -15.4363 -14.5946 -14.5433 -14.2181 -13.8902
   -13.8879 -13.4596 -13.2924 -13.2757 -10.8319 -10.8221 -10.7991  -4.3147
    -1.9224  -1.7188  -1.3759  -1.3383  -1.2430  -1.1197  -0.5992  -0.5911
    -0.0302   0.0367   0.1548   0.1889   0.4346   0.4587   0.8563   1.0205
     1.2277

          k =-0.0180 0.1903 0.1958 ( 20346 PWs)   bands (ev):

   -52.0758 -52.0758 -46.0243 -29.8784 -27.3289 -24.6731 -24.6658 -24.5978
   -24.0233 -24.0229 -23.9703 -23.9696 -23.9622 -23.9619 -19.1884 -19.1826
   -18.7537 -18.7117 -18.7085 -15.4359 -14.6716 -14.4388 -14.2475 -13.9067
   -13.8657 -13.4610 -13.2921 -13.2764 -10.8329 -10.8241 -10.7992  -4.3175
    -1.8940  -1.7260  -1.3920  -1.3614  -1.2227  -1.1318  -0.6515  -0.5343
    -0.1299   0.0214   0.2092   0.2898   0.4067   0.4655   0.9246   1.0238
     1.1616

          k =-0.0303 0.1846 0.3973 ( 20361 PWs)   bands (ev):

   -52.0758 -52.0758 -46.0243 -29.8784 -27.3288 -24.6731 -24.6658 -24.5978
   -24.0233 -24.0229 -23.9702 -23.9697 -23.9621 -23.9620 -19.1884 -19.1826
   -18.7537 -18.7117 -18.7085 -15.4310 -14.7371 -14.3906 -14.1936 -13.9447
   -13.8675 -13.4599 -13.2915 -13.2755 -10.8355 -10.8265 -10.7993  -4.3252
    -1.8215  -1.7532  -1.4136  -1.3900  -1.2192  -1.1471  -0.6136  -0.4380
    -0.2555  -0.0536   0.1330   0.3482   0.4053   0.5590   0.9663   1.0653
     1.1318

          k = 0.0190 0.2074-0.4086 ( 20339 PWs)   bands (ev):

   -52.0758 -52.0758 -46.0243 -29.8784 -27.3288 -24.6731 -24.6658 -24.5978
   -24.0233 -24.0229 -23.9702 -23.9697 -23.9621 -23.9620 -19.1884 -19.1826
   -18.7537 -18.7117 -18.7085 -15.4284 -14.7439 -14.4179 -14.1169 -13.9844
   -13.8763 -13.4578 -13.2915 -13.2743 -10.8355 -10.8265 -10.7993  -4.3272
    -1.8235  -1.7406  -1.4212  -1.3892  -1.2283  -1.1428  -0.5603  -0.3936
    -0.2622  -0.1127   0.0613   0.2699   0.4612   0.6252   0.9271   1.0422
     1.1495

          k = 0.0067 0.2017-0.2072 ( 20350 PWs)   bands (ev):

   -52.0758 -52.0758 -46.0243 -29.8784 -27.3289 -24.6731 -24.6658 -24.5978
   -24.0233 -24.0229 -23.9703 -23.9696 -23.9622 -23.9619 -19.1884 -19.1826
   -18.7537 -18.7117 -18.7085 -15.4318 -14.6830 -14.4789 -14.1533 -13.9429
   -13.8816 -13.4577 -13.2921 -13.2744 -10.8329 -10.8241 -10.7992  -4.3207
    -1.8892  -1.7151  -1.4041  -1.3493  -1.2546  -1.1207  -0.5814  -0.4567
    -0.1803  -0.0421   0.0706   0.2720   0.4361   0.5310   0.9017   0.9842
     1.1796

          k =-0.0113 0.3919-0.0113 ( 20365 PWs)   bands (ev):

   -52.0758 -52.0758 -46.0243 -29.8784 -27.3289 -24.6731 -24.6658 -24.5978
   -24.0234 -24.0229 -23.9703 -23.9696 -23.9623 -23.9619 -19.1884 -19.1826
   -18.7537 -18.7117 -18.7085 -15.4323 -14.5947 -14.5937 -14.1198 -13.9424
   -13.8877 -13.4576 -13.2924 -13.2745 -10.8319 -10.8229 -10.8025  -4.3194
    -1.9332  -1.7488  -1.3784  -1.3012  -1.2428  -1.1158  -0.5700  -0.4340
    -0.1031  -0.0548   0.0432   0.1439   0.4257   0.5861   0.9512   1.0054
     1.2168

          k =-0.0237 0.3862 0.1902 ( 20353 PWs)   bands (ev):

   -52.0758 -52.0758 -46.0243 -29.8784 -27.3288 -24.6731 -24.6658 -24.5978
   -24.0233 -24.0229 -23.9703 -23.9697 -23.9622 -23.9619 -19.1884 -19.1826
   -18.7537 -18.7117 -18.7085 -15.4329 -14.6831 -14.4833 -14.1578 -13.9348
   -13.8733 -13.4598 -13.2921 -13.2756 -10.8329 -10.8250 -10.8025  -4.3235
    -1.8938  -1.7394  -1.3959  -1.3380  -1.2007  -1.1521  -0.5916  -0.4517
    -0.1849  -0.0725   0.0784   0.2753   0.4388   0.5417   0.9732   1.0454
     1.1805

          k =-0.0360 0.3805 0.3917 ( 20378 PWs)   bands (ev):

   -52.0758 -52.0758 -46.0243 -29.8784 -27.3288 -24.6731 -24.6658 -24.5978
   -24.0233 -24.0229 -23.9702 -23.9698 -23.9621 -23.9620 -19.1884 -19.1826
   -18.7537 -18.7117 -18.7085 -15.4312 -14.7390 -14.4105 -14.1628 -13.9578
   -13.8580 -13.4613 -13.2914 -13.2763 -10.8357 -10.8273 -10.8025  -4.3321
    -1.7989  -1.7401  -1.4218  -1.3902  -1.1988  -1.1509  -0.6385  -0.4419
    -0.2503  -0.1154   0.1732   0.2678   0.4079   0.6068   0.9479   1.1042
     1.1734

          k = 0.0134 0.4033-0.4143 ( 20340 PWs)   bands (ev):

   -52.0758 -52.0758 -46.0243 -29.8784 -27.3288 -24.6731 -24.6658 -24.5978
   -24.0233 -24.0229 -23.9702 -23.9697 -23.9621 -23.9620 -19.1884 -19.1826
   -18.7537 -18.7117 -18.7085 -15.4296 -14.7432 -14.4247 -14.1166 -13.9828
   -13.8645 -13.4599 -13.2914 -13.2755 -10.8357 -10.8272 -10.8025  -4.3333
    -1.8049  -1.7284  -1.4251  -1.3866  -1.2019  -1.1577  -0.5826  -0.4342
    -0.2613  -0.1462   0.0916   0.2573   0.4649   0.6350   0.9243   1.0959
     1.1653

          k = 0.0010 0.3976-0.2128 ( 20342 PWs)   bands (ev):

   -52.0758 -52.0758 -46.0243 -29.8784 -27.3288 -24.6731 -24.6658 -24.5978
   -24.0233 -24.0229 -23.9703 -23.9697 -23.9622 -23.9619 -19.1884 -19.1826
   -18.7537 -18.7117 -18.7085 -15.4303 -14.6908 -14.4985 -14.0895 -13.9797
   -13.8797 -13.4577 -13.2921 -13.2744 -10.8329 -10.8250 -10.8025  -4.3255
    -1.8919  -1.7334  -1.4039  -1.3106  -1.2561  -1.1232  -0.5473  -0.3590
    -0.2538  -0.1260   0.0285   0.2186   0.4646   0.6136   0.9276   1.0396
     1.1760

          k = 0.1892-0.0114 0.1892 ( 20342 PWs)   bands (ev):

   -52.0758 -52.0758 -46.0243 -29.8784 -27.3288 -24.6731 -24.6658 -24.5978
   -24.0233 -24.0229 -23.9704 -23.9696 -23.9623 -23.9618 -19.1884 -19.1826
   -18.7537 -18.7117 -18.7085 -15.4414 -14.5988 -14.5340 -14.2131 -13.9005
   -13.8830 -13.4579 -13.2917 -13.2744 -10.8334 -10.8262 -10.7971  -4.3163
    -1.9129  -1.6921  -1.3800  -1.3469  -1.3039  -1.1114  -0.6132  -0.5798
    -0.0564   0.0733   0.1597   0.1667   0.4442   0.4664   0.9200   1.0233
     1.2183

          k = 0.1768-0.0171 0.3906 ( 20371 PWs)   bands (ev):

   -52.0758 -52.0758 -46.0243 -29.8784 -27.3288 -24.6731 -24.6658 -24.5978
   -24.0233 -24.0229 -23.9703 -23.9697 -23.9623 -23.9619 -19.1884 -19.1826
   -18.7537 -18.7117 -18.7085 -15.4384 -14.6822 -14.4763 -14.1490 -13.9423
   -13.8787 -13.4581 -13.2911 -13.2745 -10.8354 -10.8290 -10.7973  -4.3234
    -1.8916  -1.6924  -1.4248  -1.3430  -1.2913  -1.1105  -0.5858  -0.4650
    -0.1883  -0.0336   0.0704   0.2558   0.4462   0.5390   0.9790   1.0695
     1.1782

          k = 0.2262 0.0057-0.4153 ( 20371 PWs)   bands (ev):

   -52.0758 -52.0758 -46.0243 -29.8784 -27.3288 -24.6731 -24.6658 -24.5978
   -24.0233 -24.0229 -23.9702 -23.9697 -23.9622 -23.9620 -19.1884 -19.1826
   -18.7537 -18.7117 -18.7085 -15.4301 -14.7441 -14.4175 -14.1196 -13.9790
   -13.8732 -13.4601 -13.2911 -13.2758 -10.8354 -10.8289 -10.7972  -4.3271
    -1.8434  -1.7317  -1.4350  -1.3734  -1.2532  -1.1030  -0.5655  -0.4067
    -0.2393  -0.1094   0.0546   0.2498   0.4651   0.6272   0.9204   1.0674
     1.1141

          k = 0.2138-0.0000-0.2138 ( 20376 PWs)   bands (ev):

   -52.0758 -52.0758 -46.0243 -29.8784 -27.3288 -24.6731 -24.6658 -24.5978
   -24.0233 -24.0229 -23.9702 -23.9698 -23.9621 -23.9620 -19.1884 -19.1826
   -18.7537 -18.7117 -18.7085 -15.4281 -14.7384 -14.3881 -14.1973 -13.9449
   -13.8688 -13.4611 -13.2917 -13.2765 -10.8335 -10.8259 -10.7971  -4.3225
    -1.8233  -1.7653  -1.4155  -1.3933  -1.2117  -1.1208  -0.6112  -0.4435
    -0.2377  -0.0455   0.1318   0.3330   0.3996   0.5536   0.9061   0.9824
     1.1176

          k = 0.1835 0.1846 0.1835 ( 20379 PWs)   bands (ev):

   -52.0758 -52.0758 -46.0243 -29.8784 -27.3288 -24.6731 -24.6658 -24.5978
   -24.0234 -24.0229 -23.9704 -23.9696 -23.9623 -23.9618 -19.1884 -19.1826
   -18.7537 -18.7117 -18.7085 -15.4452 -14.5989 -14.4927 -14.2798 -13.8828
   -13.8663 -13.4599 -13.2917 -13.2756 -10.8334 -10.8268 -10.7993  -4.3131
    -1.9293  -1.7288  -1.3684  -1.3376  -1.3111  -1.0690  -0.6636  -0.6208
     0.0246   0.1190   0.1957   0.2201   0.3233   0.5254   0.9828   1.0527
     1.1572

          k = 0.1712 0.1789 0.3850 ( 20388 PWs)   bands (ev):

   -52.0758 -52.0758 -46.0243 -29.8784 -27.3288 -24.6731 -24.6658 -24.5978
   -24.0234 -24.0229 -23.9703 -23.9697 -23.9623 -23.9619 -19.1884 -19.1826
   -18.7537 -18.7117 -18.7085 -15.4437 -14.6712 -14.4329 -14.2432 -13.9002
   -13.8738 -13.4580 -13.2911 -13.2744 -10.8355 -10.8295 -10.7993  -4.3186
    -1.9033  -1.7251  -1.4094  -1.3473  -1.3130  -1.0759  -0.6329  -0.5438
    -0.1332   0.0389   0.2127   0.3012   0.4022   0.4663   1.0262   1.0814
     1.1641

          k = 0.2205 0.2017-0.4210 ( 20364 PWs)   bands (ev):

   -52.0758 -52.0758 -46.0243 -29.8784 -27.3288 -24.6731 -24.6658 -24.5978
   -24.0233 -24.0229 -23.9702 -23.9698 -23.9622 -23.9620 -19.1884 -19.1826
   -18.7537 -18.7117 -18.7085 -15.4332 -14.7387 -14.4009 -14.1640 -13.9539
   -13.8745 -13.4579 -13.2911 -13.2745 -10.8355 -10.8294 -10.7993  -4.3263
    -1.8389  -1.7350  -1.4450  -1.3749  -1.2541  -1.1040  -0.6089  -0.4398
    -0.2276  -0.0817   0.1792   0.2477   0.4243   0.5927   0.9482   1.0681
     1.1458

          k = 0.2082 0.1960-0.2195 ( 20352 PWs)   bands (ev):

   -52.0758 -52.0758 -46.0243 -29.8784 -27.3288 -24.6731 -24.6658 -24.5978
   -24.0233 -24.0229 -23.9702 -23.9697 -23.9621 -23.9620 -19.1884 -19.1826
   -18.7537 -18.7117 -18.7085 -15.4282 -14.7402 -14.4031 -14.1670 -13.9573
   -13.8700 -13.4598 -13.2917 -13.2758 -10.8335 -10.8264 -10.7993  -4.3257
    -1.8128  -1.7546  -1.4315  -1.3906  -1.2091  -1.1212  -0.6155  -0.4385
    -0.2308  -0.0942   0.1823   0.2554   0.4013   0.5964   0.9447   0.9727
     1.1486

          k = 0.1778 0.3805 0.1778 ( 20368 PWs)   bands (ev):

   -52.0758 -52.0758 -46.0243 -29.8784 -27.3288 -24.6731 -24.6658 -24.5978
   -24.0234 -24.0229 -23.9703 -23.9696 -23.9623 -23.9618 -19.1884 -19.1826
   -18.7537 -18.7117 -18.7085 -15.4428 -14.5990 -14.5411 -14.2183 -13.8826
   -13.8767 -13.4613 -13.2917 -13.2764 -10.8334 -10.8277 -10.8025  -4.3176
    -1.9436  -1.7617  -1.3662  -1.3253  -1.2495  -1.0887  -0.6033  -0.5818
    -0.0142   0.0275   0.1568   0.1717   0.4432   0.4708   1.0196   1.0526
     1.2159

          k = 0.1655 0.3748 0.3793 ( 20361 PWs)   bands (ev):

   -52.0758 -52.0758 -46.0243 -29.8784 -27.3288 -24.6731 -24.6658 -24.5978
   -24.0234 -24.0229 -23.9703 -23.9696 -23.9623 -23.9619 -19.1884 -19.1826
   -18.7537 -18.7117 -18.7085 -15.4447 -14.6712 -14.4402 -14.2415 -13.9009
   -13.8603 -13.4602 -13.2911 -13.2757 -10.8357 -10.8304 -10.8025  -4.3215
    -1.9066  -1.7536  -1.3854  -1.3417  -1.3100  -1.0588  -0.6521  -0.5198
    -0.1332   0.0187   0.2184   0.2891   0.3988   0.4687   1.0244   1.0899
     1.1815

          k = 0.2148 0.3976-0.4266 ( 20359 PWs)   bands (ev):

   -52.0758 -52.0758 -46.0243 -29.8784 -27.3288 -24.6731 -24.6658 -24.5978
   -24.0233 -24.0229 -23.9702 -23.9697 -23.9622 -23.9619 -19.1884 -19.1826
   -18.7537 -18.7117 -18.7085 -15.4359 -14.7349 -14.3939 -14.1870 -13.9439
   -13.8666 -13.4579 -13.2911 -13.2745 -10.8357 -10.8302 -10.8025  -4.3296
    -1.8151  -1.7443  -1.4135  -1.3853  -1.2771  -1.1196  -0.6326  -0.4025
    -0.2868  -0.0549   0.1344   0.3501   0.4075   0.5621   0.9709   1.0919
     1.1666

          k = 0.2025 0.3919-0.2252 ( 20366 PWs)   bands (ev):

   -52.0758 -52.0758 -46.0243 -29.8784 -27.3288 -24.6731 -24.6658 -24.5978
   -24.0233 -24.0229 -23.9702 -23.9697 -23.9621 -23.9620 -19.1884 -19.1826
   -18.7537 -18.7117 -18.7085 -15.4283 -14.7432 -14.4219 -14.1150 -13.9863
   -13.8715 -13.4577 -13.2917 -13.2745 -10.8335 -10.8274 -10.8025  -4.3309
    -1.7995  -1.7369  -1.4246  -1.3963  -1.2061  -1.1591  -0.5775  -0.4142
    -0.2683  -0.1305   0.0834   0.2694   0.4618   0.6295   0.9244   1.0697
     1.1580

          k = 0.2005-0.4033 0.2005 ( 20349 PWs)   bands (ev):

   -52.0758 -52.0758 -46.0243 -29.8784 -27.3288 -24.6731 -24.6658 -24.5978
   -24.0234 -24.0229 -23.9703 -23.9696 -23.9623 -23.9618 -19.1884 -19.1826
   -18.7537 -18.7117 -18.7085 -15.4375 -14.5990 -14.5899 -14.1226 -13.9310
   -13.8826 -13.4601 -13.2917 -13.2756 -10.8334 -10.8276 -10.8025  -4.3237
    -1.9368  -1.7513  -1.3754  -1.3225  -1.1998  -1.1240  -0.5843  -0.4343
    -0.1042  -0.0800   0.0348   0.1502   0.4313   0.5952   0.9509   1.0485
     1.2171

          k = 0.1881-0.4090 0.4020 ( 20369 PWs)   bands (ev):

   -52.0758 -52.0758 -46.0243 -29.8784 -27.3288 -24.6731 -24.6658 -24.5978
   -24.0234 -24.0229 -23.9703 -23.9697 -23.9623 -23.9619 -19.1884 -19.1826
   -18.7537 -18.7117 -18.7085 -15.4400 -14.6824 -14.4838 -14.1557 -13.9283
   -13.8664 -13.4616 -13.2911 -13.2764 -10.8356 -10.8303 -10.8025  -4.3280
    -1.9024  -1.7407  -1.3998  -1.3339  -1.2353  -1.1093  -0.6117  -0.4317
    -0.2048  -0.0693   0.0831   0.2516   0.4413   0.5540   0.9760   1.1030
     1.1809

          k = 0.2375-0.3862-0.4040 ( 20364 PWs)   bands (ev):

   -52.0758 -52.0758 -46.0243 -29.8784 -27.3288 -24.6731 -24.6658 -24.5978
   -24.0233 -24.0229 -23.9702 -23.9697 -23.9622 -23.9620 -19.1884 -19.1826
   -18.7537 -18.7117 -18.7085 -15.4345 -14.7380 -14.4090 -14.1606 -13.9555
   -13.8613 -13.4601 -13.2911 -13.2757 -10.8357 -10.8302 -10.8025  -4.3324
    -1.8157  -1.7317  -1.4312  -1.3788  -1.2517  -1.1089  -0.6356  -0.4441
    -0.2386  -0.1031   0.1671   0.2635   0.4133   0.6038   0.9490   1.1151
     1.1696

          k = 0.1948-0.2074 0.1948 ( 20314 PWs)   bands (ev):

   -52.0758 -52.0758 -46.0243 -29.8784 -27.3288 -24.6731 -24.6658 -24.5978
   -24.0233 -24.0228 -23.9703 -23.9696 -23.9623 -23.9618 -19.1884 -19.1826
   -18.7537 -18.7117 -18.7085 -15.4366 -14.5989 -14.5865 -14.1107 -13.9533
   -13.8828 -13.4580 -13.2917 -13.2744 -10.8334 -10.8266 -10.7992  -4.3229
    -1.9175  -1.7052  -1.3846  -1.3415  -1.2646  -1.0992  -0.5884  -0.4519
    -0.1278  -0.0388   0.0356   0.1543   0.4195   0.5919   0.9549   0.9553
     1.2291

          k = 0.1825-0.2131 0.3963 ( 20355 PWs)   bands (ev):

   -52.0758 -52.0758 -46.0243 -29.8784 -27.3288 -24.6731 -24.6658 -24.5978
   -24.0233 -24.0229 -23.9703 -23.9696 -23.9623 -23.9619 -19.1884 -19.1826
   -18.7537 -18.7117 -18.7085 -15.4361 -14.6899 -14.4975 -14.0872 -13.9762
   -13.8747 -13.4603 -13.2911 -13.2757 -10.8354 -10.8294 -10.7993  -4.3292
    -1.8933  -1.6989  -1.4186  -1.3288  -1.2721  -1.1002  -0.5661  -0.3746
    -0.2622  -0.1204   0.0365   0.1962   0.4655   0.6213   0.9309   1.0850
     1.1782

          k = 0.2318-0.1903-0.4097 ( 20377 PWs)   bands (ev):

   -52.0758 -52.0758 -46.0243 -29.8784 -27.3288 -24.6731 -24.6658 -24.5978
   -24.0233 -24.0229 -23.9702 -23.9697 -23.9622 -23.9620 -19.1884 -19.1826
   -18.7537 -18.7117 -18.7085 -15.4309 -14.7436 -14.4218 -14.1191 -13.9782
   -13.8660 -13.4615 -13.2911 -13.2765 -10.8355 -10.8293 -10.7993  -4.3309
    -1.8338  -1.7239  -1.4357  -1.3741  -1.2461  -1.0978  -0.5824  -0.4345
    -0.2366  -0.1299   0.0765   0.2431   0.4653   0.6337   0.9207   1.0988
     1.1219

          k = 0.3783-0.0228 0.3783 ( 20372 PWs)   bands (ev):

   -52.0758 -52.0758 -46.0243 -29.8784 -27.3288 -24.6731 -24.6658 -24.5978
   -24.0234 -24.0229 -23.9703 -23.9696 -23.9623 -23.9618 -19.1884 -19.1826
   -18.7537 -18.7117 -18.7085 -15.4448 -14.6057 -14.5772 -14.1083 -13.9484
   -13.8746 -13.4607 -13.2906 -13.2760 -10.8357 -10.8334 -10.7974  -4.3291
    -1.9081  -1.6672  -1.3980  -1.3899  -1.2600  -1.0888  -0.6079  -0.4472
    -0.1535  -0.0922   0.0461   0.1675   0.4174   0.6054   0.9565   1.1206
     1.2355

          k = 0.4277 0.0000-0.4277 ( 20362 PWs)   bands (ev):

   -52.0758 -52.0758 -46.0243 -29.8784 -27.3288 -24.6731 -24.6658 -24.5978
   -24.0233 -24.0229 -23.9703 -23.9697 -23.9623 -23.9619 -19.1884 -19.1826
   -18.7537 -18.7117 -18.7085 -15.4399 -14.6893 -14.4962 -14.0856 -13.9741
   -13.8718 -13.4620 -13.2906 -13.2768 -10.8358 -10.8333 -10.7974  -4.3314
    -1.8912  -1.6744  -1.4367  -1.3405  -1.2879  -1.0787  -0.5669  -0.3827
    -0.2800  -0.1272   0.0433   0.1870   0.4646   0.6255   0.9331   1.1216
     1.1740

          k = 0.3726 0.1732 0.3726 ( 20387 PWs)   bands (ev):

   -52.0758 -52.0758 -46.0243 -29.8784 -27.3288 -24.6731 -24.6658 -24.5978
   -24.0234 -24.0229 -23.9703 -23.9696 -23.9623 -23.9618 -19.1884 -19.1826
   -18.7537 -18.7117 -18.7085 -15.4512 -14.6058 -14.5256 -14.2095 -13.8940
   -13.8745 -13.4585 -13.2906 -13.2748 -10.8357 -10.8341 -10.7994  -4.3202
    -1.9287  -1.7234  -1.3992  -1.3732  -1.2983  -1.0486  -0.6251  -0.5558
    -0.0599   0.0757   0.1396   0.1795   0.4430   0.4594   1.0243   1.1119
     1.2275

          k = 0.4220 0.1960-0.4333 ( 20394 PWs)   bands (ev):

   -52.0758 -52.0758 -46.0243 -29.8784 -27.3288 -24.6731 -24.6658 -24.5978
   -24.0234 -24.0229 -23.9703 -23.9697 -23.9623 -23.9619 -19.1884 -19.1826
   -18.7537 -18.7117 -18.7085 -15.4437 -14.6818 -14.4789 -14.1501 -13.9322
   -13.8705 -13.4606 -13.2906 -13.2761 -10.8358 -10.8339 -10.7994  -4.3278
    -1.9021  -1.7074  -1.4281  -1.3449  -1.2792  -1.0797  -0.6063  -0.4445
    -0.2076  -0.0456   0.0786   0.2427   0.4413   0.5519   0.9779   1.1191
     1.1719

          k = 0.3670 0.3691 0.3670 ( 20402 PWs)   bands (ev):

   -52.0758 -52.0758 -46.0243 -29.8784 -27.3288 -24.6731 -24.6658 -24.5978
   -24.0234 -24.0229 -23.9704 -23.9696 -23.9623 -23.9618 -19.1884 -19.1826
   -18.7537 -18.7117 -18.7085 -15.4555 -14.6059 -14.4835 -14.2742 -13.8743
   -13.8642 -13.4583 -13.2906 -13.2747 -10.8357 -10.8352 -10.8025  -4.3152
    -1.9529  -1.7741  -1.4181  -1.3579  -1.3152  -0.9349  -0.6551  -0.6309
     0.0300   0.1487   0.2091   0.2133   0.3384   0.4593   1.0541   1.1079
     1.2156

          k = 0.4163 0.3919-0.4390 ( 20356 PWs)   bands (ev):

   -52.0758 -52.0758 -46.0243 -29.8784 -27.3288 -24.6731 -24.6658 -24.5978
   -24.0234 -24.0229 -23.9703 -23.9696 -23.9623 -23.9618 -19.1884 -19.1826
   -18.7537 -18.7117 -18.7085 -15.4497 -14.6710 -14.4363 -14.2381 -13.8970
   -13.8657 -13.4583 -13.2906 -13.2748 -10.8358 -10.8350 -10.8025  -4.3221
    -1.9127  -1.7558  -1.4151  -1.3491  -1.3267  -1.0161  -0.6440  -0.5191
    -0.1341   0.0343   0.2261   0.2878   0.3951   0.4538   1.0263   1.1103
     1.1730

          k = 0.3896-0.4147 0.3896 ( 20381 PWs)   bands (ev):

   -52.0758 -52.0758 -46.0243 -29.8784 -27.3288 -24.6731 -24.6658 -24.5978
   -24.0234 -24.0229 -23.9703 -23.9696 -23.9623 -23.9618 -19.1884 -19.1826
   -18.7537 -18.7117 -18.7085 -15.4520 -14.6059 -14.5303 -14.2123 -13.8794
   -13.8743 -13.4606 -13.2906 -13.2760 -10.8357 -10.8351 -10.8025  -4.3211
    -1.9490  -1.7688  -1.3810  -1.3630  -1.2820  -1.0120  -0.6222  -0.5486
    -0.0290   0.0450   0.1446   0.1741   0.4391   0.4587   1.0221   1.1131
     1.2163

          k = 0.3840-0.2188 0.3840 ( 20363 PWs)   bands (ev):

   -52.0758 -52.0758 -46.0243 -29.8784 -27.3288 -24.6731 -24.6658 -24.5978
   -24.0234 -24.0228 -23.9703 -23.9696 -23.9623 -23.9618 -19.1884 -19.1826
   -18.7537 -18.7117 -18.7085 -15.4453 -14.6057 -14.5794 -14.1155 -13.9345
   -13.8745 -13.4621 -13.2906 -13.2768 -10.8357 -10.8340 -10.7994  -4.3296
    -1.9216  -1.7060  -1.3826  -1.3793  -1.2264  -1.0908  -0.6074  -0.4305
    -0.1364  -0.1139   0.0425   0.1660   0.4181   0.6072   0.9543   1.1283
     1.2286

     highest occupied level (ev):     1.2355

!    total energy              =   -1443.57125120 Ry
     total all-electron energy =     -1443.571251 Ry
     estimated scf accuracy    <          2.1E-11 Ry

     The total energy is the sum of the following terms:
     one-electron contribution =    -669.19577490 Ry
     hartree contribution      =     368.93902656 Ry
     xc contribution           =    -128.02922937 Ry
     ewald contribution        =    -293.09708885 Ry
     one-center paw contrib.   =    -722.18818464 Ry

     convergence has been achieved in  26 iterations

     Forces acting on atoms (cartesian axes, Ry/au):

     atom    1 type  2   force =    -0.00471904   -0.00423438   -0.00471904
     atom    2 type  1   force =    -0.00155111    0.00268292   -0.00696639
     atom    3 type  2   force =     0.00488684   -0.00498468    0.00488684
     atom    4 type  1   force =    -0.00696639    0.00268292   -0.00155111
     atom    5 type  3   force =     0.00666319    0.00511236    0.00666319
     atom    6 type  4   force =     0.00529883    0.00407787    0.00529883
     atom    7 type  5   force =     0.00008982    0.00670811    0.00440703
     atom    8 type  5   force =    -0.00492886   -0.00929627   -0.00686256
     atom    9 type  5   force =     0.00846351    0.00130029    0.00846351
     atom   10 type  5   force =    -0.00478126   -0.00146098   -0.00478126
     atom   11 type  5   force =     0.00440703    0.00670811    0.00008982
     atom   12 type  5   force =    -0.00686256   -0.00929627   -0.00492886

     Total force =     0.032808     Total SCF correction =     0.000010


     Computing stress (Cartesian axis) and pressure

          total   stress  (Ry/bohr**3)                   (kbar)     P=        1.82
  -0.00000093  -0.00007710  -0.00005164           -0.14      -11.34       -7.60
  -0.00007710   0.00003891  -0.00007710          -11.34        5.72      -11.34
  -0.00005164  -0.00007710  -0.00000093           -7.60      -11.34       -0.14

     Energy error            =      3.2E-03 Ry
     Gradient error          =      9.3E-03 Ry/Bohr
     Cell gradient error     =      1.1E+01 kbar

     number of scf cycles    =   2
     number of bfgs steps    =   1

     enthalpy           old  =   -1443.5680971515 Ry
     enthalpy           new  =   -1443.5712511986 Ry

     CASE: enthalpy          _new < enthalpy          _old


     WARNING: bfgs curvature condition failed, Theta= 0.830
     new trust radius        =       0.0438995553 bohr
     new conv_thr            =            3.2E-11 Ry

     new unit-cell volume =   2599.58471 a.u.^3 (   385.21871 Ang^3 )
     density =      1.85376 g/cm^3

CELL_PARAMETERS (angstrom)
   7.224423917   0.200006442   0.433858867
   0.201560147   7.418000751   0.201560147
   0.433858867   0.200006442   7.224423917

ATOMIC_POSITIONS (angstrom)
K            -0.0350084996        0.0101919029       -0.0350084996
Na            3.7154487565        3.8659559627        0.2388695122
K             3.8532214571        0.1513795089        3.8532214571
Na            0.2388695122        3.8659559627        3.7154487565
Zr            1.7782754523        1.7817520414        1.7782754523
Sn            6.0435183523        5.8825833418        6.0435183523
O             2.7276316971        0.6352258674        0.6321131559
O             4.5184534787       -0.4130780088       -0.1955636946
O             0.6340998653        2.6971924526        0.6340998653
O            -0.3315307437        4.7547340189       -0.3315307437
O             0.6321131559        0.6352258674        2.7276316971
O            -0.1955636946       -0.4130780088        4.5184534787



     Writing config-only to output data dir ./K4ZrSnO6.save/
     NEW-OLD atomic charge density approx. for the potential
     extrapolated charge   98.11938, renormalised to   98.00000

     total cpu time spent up to now is      824.0 secs

     per-process dynamical memory:   140.9 Mb

     Self-consistent Calculation

     iteration #  1     ecut=    60.00 Ry     beta= 0.70
     Davidson diagonalization with overlap
     c_bands:  1 eigenvalues not converged
     c_bands:  1 eigenvalues not converged
     ethr =  1.00E-06,  avg # of iterations = 16.0

     total cpu time spent up to now is      849.6 secs

     total energy              =   -1443.56988221 Ry
     estimated scf accuracy    <       0.00694768 Ry

     iteration #  2     ecut=    60.00 Ry     beta= 0.70
     Davidson diagonalization with overlap
     ethr =  7.09E-06,  avg # of iterations =  6.8

     total cpu time spent up to now is      867.4 secs

     total energy              =   -1443.56698962 Ry
     estimated scf accuracy    <       0.10274462 Ry

     iteration #  3     ecut=    60.00 Ry     beta= 0.70
     Davidson diagonalization with overlap
     ethr =  7.09E-06,  avg # of iterations =  6.4

     total cpu time spent up to now is      883.7 secs

     total energy              =   -1443.57337842 Ry
     estimated scf accuracy    <       0.02892241 Ry

     iteration #  4     ecut=    60.00 Ry     beta= 0.70
     Davidson diagonalization with overlap
     ethr =  7.09E-06,  avg # of iterations =  6.7

     total cpu time spent up to now is      898.2 secs

     total energy              =   -1443.57477091 Ry
     estimated scf accuracy    <       0.01961332 Ry

     iteration #  5     ecut=    60.00 Ry     beta= 0.70
     Davidson diagonalization with overlap
     ethr =  7.09E-06,  avg # of iterations =  5.4

     total cpu time spent up to now is      910.6 secs

     total energy              =   -1443.57566519 Ry
     estimated scf accuracy    <       0.00269020 Ry

     iteration #  6     ecut=    60.00 Ry     beta= 0.70
     Davidson diagonalization with overlap
     ethr =  2.75E-06,  avg # of iterations =  1.3

     total cpu time spent up to now is      919.5 secs

     total energy              =   -1443.57550477 Ry
     estimated scf accuracy    <       0.00178398 Ry

     iteration #  7     ecut=    60.00 Ry     beta= 0.70
     Davidson diagonalization with overlap
     ethr =  1.82E-06,  avg # of iterations =  6.1

     total cpu time spent up to now is      931.4 secs

     total energy              =   -1443.57574014 Ry
     estimated scf accuracy    <       0.00024644 Ry

     iteration #  8     ecut=    60.00 Ry     beta= 0.70
     Davidson diagonalization with overlap
     ethr =  2.51E-07,  avg # of iterations =  2.0

     total cpu time spent up to now is      940.8 secs

     total energy              =   -1443.57572129 Ry
     estimated scf accuracy    <       0.00021161 Ry

     iteration #  9     ecut=    60.00 Ry     beta= 0.70
     Davidson diagonalization with overlap
     ethr =  2.16E-07,  avg # of iterations =  6.1

     total cpu time spent up to now is      953.0 secs

     total energy              =   -1443.57574228 Ry
     estimated scf accuracy    <       0.00002243 Ry

     iteration # 10     ecut=    60.00 Ry     beta= 0.70
     Davidson diagonalization with overlap
     ethr =  2.29E-08,  avg # of iterations =  5.6

     total cpu time spent up to now is      967.0 secs

     total energy              =   -1443.57574758 Ry
     estimated scf accuracy    <       0.00002377 Ry

     iteration # 11     ecut=    60.00 Ry     beta= 0.70
     Davidson diagonalization with overlap
     ethr =  2.29E-08,  avg # of iterations =  5.2

[...]

     total cpu time spent up to now is     9002.0 secs

     total energy              =   -1443.67677285 Ry
     estimated scf accuracy    <       0.00010804 Ry

     iteration #351     ecut=    60.00 Ry     beta= 0.70
     Davidson diagonalization with overlap
     ethr =  1.58E-11,  avg # of iterations =  6.8

     total cpu time spent up to now is     9018.5 secs

     total energy              =   -1443.67677013 Ry
     estimated scf accuracy    <       0.00008621 Ry

     iteration #352     ecut=    60.00 Ry     beta= 0.70
     Davidson diagonalization with overlap
     ethr =  1.58E-11,  avg # of iterations =  7.1

     total cpu time spent up to now is     9037.3 secs

     total energy              =   -1443.67677001 Ry
     estimated scf accuracy    <       0.00005340 Ry

     iteration #353     ecut=    60.00 Ry     beta= 0.70
     Davidson diagonalization with overlap
     ethr =  1.58E-11,  avg # of iterations =  6.5

     total cpu time spent up to now is     9050.3 secs

     total energy              =   -1443.67676991 Ry
     estimated scf accuracy    <       0.00004890 Ry

     iteration #354     ecut=    60.00 Ry     beta= 0.70
     Davidson diagonalization with overlap
     ethr =  1.58E-11,  avg # of iterations =  1.5

     total cpu time spent up to now is     9059.2 secs

     total energy              =   -1443.67676969 Ry
     estimated scf accuracy    <       0.00004800 Ry

     iteration #355     ecut=    60.00 Ry     beta= 0.70
     Davidson diagonalization with overlap
     ethr =  1.58E-11,  avg # of iterations =  6.0

     total cpu time spent up to now is     9071.4 secs

     total energy              =   -1443.67676953 Ry
     estimated scf accuracy    <       0.00004487 Ry

     iteration #356     ecut=    60.00 Ry     beta= 0.70
     Davidson diagonalization with overlap
     ethr =  1.58E-11,  avg # of iterations =  3.5

     total cpu time spent up to now is     9081.2 secs

     total energy              =   -1443.67676983 Ry
     estimated scf accuracy    <       0.00004330 Ry

     iteration #357     ecut=    60.00 Ry     beta= 0.70
     Davidson diagonalization with overlap
     ethr =  1.58E-11,  avg # of iterations =  4.7

     total cpu time spent up to now is     9092.2 secs

     total energy              =   -1443.67676308 Ry
     estimated scf accuracy    <       0.00004632 Ry

     iteration #358     ecut=    60.00 Ry     beta= 0.70
     Davidson diagonalization with overlap
     c_bands:  1 eigenvalues not converged
     c_bands:  1 eigenvalues not converged
     ethr =  1.58E-11,  avg # of iterations = 16.4

     total cpu time spent up to now is     9118.5 secs

     total energy              =   -1443.67677396 Ry
     estimated scf accuracy    <       0.00015808 Ry

     iteration #359     ecut=    60.00 Ry     beta= 0.70
     Davidson diagonalization with overlap
     c_bands:  1 eigenvalues not converged
     ethr =  1.58E-11,  avg # of iterations =  8.2

     total cpu time spent up to now is     9138.1 secs

     total energy              =   -1443.67677255 Ry
     estimated scf accuracy    <       0.00010338 Ry

     iteration #360     ecut=    60.00 Ry     beta= 0.70
     Davidson diagonalization with overlap
     ethr =  1.58E-11,  avg # of iterations =  6.9

     total cpu time spent up to now is     9155.1 secs

     total energy              =   -1443.67676965 Ry
     estimated scf accuracy    <       0.00008160 Ry

     iteration #361     ecut=    60.00 Ry     beta= 0.70
     Davidson diagonalization with overlap
     ethr =  1.58E-11,  avg # of iterations =  7.2

     total cpu time spent up to now is     9174.7 secs

     total energy              =   -1443.67676975 Ry
     estimated scf accuracy    <       0.00004896 Ry

     iteration #362     ecut=    60.00 Ry     beta= 0.70
     Davidson diagonalization with overlap
     ethr =  1.58E-11,  avg # of iterations =  4.4

     total cpu time spent up to now is     9185.0 secs

     total energy              =   -1443.67676971 Ry
     estimated scf accuracy    <       0.00004707 Ry

     iteration #363     ecut=    60.00 Ry     beta= 0.70
     Davidson diagonalization with overlap
     ethr =  1.58E-11,  avg # of iterations =  1.0

     total cpu time spent up to now is     9193.6 secs

     total energy              =   -1443.67676977 Ry
     estimated scf accuracy    <       0.00004693 Ry

     iteration #364     ecut=    60.00 Ry     beta= 0.70
     Davidson diagonalization with overlap
     ethr =  1.58E-11,  avg # of iterations =  1.0

     total cpu time spent up to now is     9202.3 secs

     total energy              =   -1443.67676973 Ry
     estimated scf accuracy    <       0.00004705 Ry

     iteration #365     ecut=    60.00 Ry     beta= 0.70
     Davidson diagonalization with overlap
     ethr =  1.58E-11,  avg # of iterations =  1.0

     total cpu time spent up to now is     9210.9 secs

     total energy              =   -1443.67676966 Ry
     estimated scf accuracy    <       0.00004694 Ry

     iteration #366     ecut=    60.00 Ry     beta= 0.70
     Davidson diagonalization with overlap
     ethr =  1.58E-11,  avg # of iterations =  1.5

     total cpu time spent up to now is     9219.7 secs

     total energy              =   -1443.67676295 Ry
     estimated scf accuracy    <       0.00004619 Ry

     iteration #367     ecut=    60.00 Ry     beta= 0.70
     Davidson diagonalization with overlap
     c_bands:  1 eigenvalues not converged
     c_bands:  1 eigenvalues not converged
     ethr =  1.58E-11,  avg # of iterations = 16.5

     total cpu time spent up to now is     9246.2 secs

     total energy              =   -1443.67677373 Ry
     estimated scf accuracy    <       0.00018069 Ry

     iteration #368     ecut=    60.00 Ry     beta= 0.70
     Davidson diagonalization with overlap
     c_bands:  1 eigenvalues not converged
     c_bands:  1 eigenvalues not converged
     ethr =  1.58E-11,  avg # of iterations =  8.8

     total cpu time spent up to now is     9265.8 secs

     total energy              =   -1443.67677277 Ry
     estimated scf accuracy    <       0.00010683 Ry

     iteration #369     ecut=    60.00 Ry     beta= 0.70
     Davidson diagonalization with overlap
     ethr =  1.58E-11,  avg # of iterations =  6.8

     total cpu time spent up to now is     9282.3 secs

     total energy              =   -1443.67676995 Ry
     estimated scf accuracy    <       0.00008523 Ry

     iteration #370     ecut=    60.00 Ry     beta= 0.70
     Davidson diagonalization with overlap
     ethr =  1.58E-11,  avg # of iterations =  7.2

     total cpu time spent up to now is     9301.2 secs

     total energy              =   -1443.67676969 Ry
     estimated scf accuracy    <       0.00005148 Ry

     iteration #371     ecut=    60.00 Ry     beta= 0.70
     Davidson diagonalization with overlap
     ethr =  1.58E-11,  avg # of iterations =  6.3

     total cpu time spent up to now is     9315.5 secs

     total energy              =   -1443.67676945 Ry
     estimated scf accuracy    <       0.00004497 Ry

     iteration #372     ecut=    60.00 Ry     beta= 0.70
     Davidson diagonalization with overlap
     ethr =  1.58E-11,  avg # of iterations =  6.7

     total cpu time spent up to now is     9327.7 secs

     total energy              =   -1443.67676942 Ry
     estimated scf accuracy    <       0.00004197 Ry

     iteration #373     ecut=    60.00 Ry     beta= 0.70
     Davidson diagonalization with overlap
     ethr =  1.58E-11,  avg # of iterations =  1.0

     total cpu time spent up to now is     9336.3 secs

     total energy              =   -1443.67676932 Ry
     estimated scf accuracy    <       0.00004187 Ry

     iteration #374     ecut=    60.00 Ry     beta= 0.70
     Davidson diagonalization with overlap
     ethr =  1.58E-11,  avg # of iterations =  1.6

     total cpu time spent up to now is     9345.3 secs

     total energy              =   -1443.67676948 Ry
     estimated scf accuracy    <       0.00004081 Ry

     iteration #375     ecut=    60.00 Ry     beta= 0.70
     Davidson diagonalization with overlap
     ethr =  1.58E-11,  avg # of iterations =  2.2

     total cpu time spent up to now is     9354.4 secs

     total energy              =   -1443.67676329 Ry
     estimated scf accuracy    <       0.00004204 Ry

     iteration #376     ecut=    60.00 Ry     beta= 0.70
     Davidson diagonalization with overlap
     c_bands:  1 eigenvalues not converged
     c_bands:  1 eigenvalues not converged
     ethr =  1.58E-11,  avg # of iterations = 16.2

     total cpu time spent up to now is     9380.6 secs

     total energy              =   -1443.67677447 Ry
     estimated scf accuracy    <       0.00015973 Ry

     iteration #377     ecut=    60.00 Ry     beta= 0.70
     Davidson diagonalization with overlap
     ethr =  1.58E-11,  avg # of iterations =  7.9

     total cpu time spent up to now is     9400.4 secs

     total energy              =   -1443.67677272 Ry
     estimated scf accuracy    <       0.00010761 Ry

     iteration #378     ecut=    60.00 Ry     beta= 0.70
     Davidson diagonalization with overlap
     ethr =  1.58E-11,  avg # of iterations =  6.9

     total cpu time spent up to now is     9417.6 secs

     total energy              =   -1443.67676986 Ry
     estimated scf accuracy    <       0.00008382 Ry

     iteration #379     ecut=    60.00 Ry     beta= 0.70
     Davidson diagonalization with overlap
     ethr =  1.58E-11,  avg # of iterations =  7.1

     total cpu time spent up to now is     9437.0 secs

     total energy              =   -1443.67676996 Ry
     estimated scf accuracy    <       0.00005130 Ry

     iteration #380     ecut=    60.00 Ry     beta= 0.70
     Davidson diagonalization with overlap
     ethr =  1.58E-11,  avg # of iterations =  3.3

     total cpu time spent up to now is     9446.7 secs

     total energy              =   -1443.67676991 Ry
     estimated scf accuracy    <       0.00004979 Ry

     iteration #381     ecut=    60.00 Ry     beta= 0.70
     Davidson diagonalization with overlap
     ethr =  1.58E-11,  avg # of iterations =  1.0

     total cpu time spent up to now is     9455.3 secs

     total energy              =   -1443.67676990 Ry
     estimated scf accuracy    <       0.00004959 Ry

     iteration #382     ecut=    60.00 Ry     beta= 0.70
     Davidson diagonalization with overlap
     ethr =  1.58E-11,  avg # of iterations =  1.0

     total cpu time spent up to now is     9463.9 secs

     total energy              =   -1443.67676991 Ry
     estimated scf accuracy    <       0.00004952 Ry

     iteration #383     ecut=    60.00 Ry     beta= 0.70
     Davidson diagonalization with overlap
     ethr =  1.58E-11,  avg # of iterations =  1.0

     total cpu time spent up to now is     9472.5 secs

     total energy              =   -1443.67676983 Ry
     estimated scf accuracy    <       0.00004949 Ry

     iteration #384     ecut=    60.00 Ry     beta= 0.70
     Davidson diagonalization with overlap
     ethr =  1.58E-11,  avg # of iterations =  3.3

     total cpu time spent up to now is     9482.3 secs

     total energy              =   -1443.67676292 Ry
     estimated scf accuracy    <       0.00004818 Ry

     iteration #385     ecut=    60.00 Ry     beta= 0.70
     Davidson diagonalization with overlap
     c_bands:  1 eigenvalues not converged
     c_bands:  1 eigenvalues not converged
     ethr =  1.58E-11,  avg # of iterations = 16.4

     total cpu time spent up to now is     9508.6 secs

     total energy              =   -1443.67677388 Ry
     estimated scf accuracy    <       0.00017731 Ry

     iteration #386     ecut=    60.00 Ry     beta= 0.70
     Davidson diagonalization with overlap
     c_bands:  1 eigenvalues not converged
     ethr =  1.58E-11,  avg # of iterations =  8.3

     total cpu time spent up to now is     9528.5 secs

     total energy              =   -1443.67677280 Ry
     estimated scf accuracy    <       0.00010730 Ry

     iteration #387     ecut=    60.00 Ry     beta= 0.70
     Davidson diagonalization with overlap
     ethr =  1.58E-11,  avg # of iterations =  6.8

     total cpu time spent up to now is     9545.0 secs

     total energy              =   -1443.67676984 Ry
     estimated scf accuracy    <       0.00008553 Ry

     iteration #388     ecut=    60.00 Ry     beta= 0.70
     Davidson diagonalization with overlap
     ethr =  1.58E-11,  avg # of iterations =  7.1

     total cpu time spent up to now is     9564.5 secs

     total energy              =   -1443.67676974 Ry
     estimated scf accuracy    <       0.00005038 Ry

     iteration #389     ecut=    60.00 Ry     beta= 0.70
     Davidson diagonalization with overlap
     ethr =  1.58E-11,  avg # of iterations =  6.4

     total cpu time spent up to now is     9577.7 secs

     total energy              =   -1443.67676956 Ry
     estimated scf accuracy    <       0.00004564 Ry

     iteration #390     ecut=    60.00 Ry     beta= 0.70
     Davidson diagonalization with overlap
     ethr =  1.58E-11,  avg # of iterations =  5.8

     total cpu time spent up to now is     9588.9 secs

     total energy              =   -1443.67676947 Ry
     estimated scf accuracy    <       0.00004346 Ry

     iteration #391     ecut=    60.00 Ry     beta= 0.70
     Davidson diagonalization with overlap
     ethr =  1.58E-11,  avg # of iterations =  1.8

     total cpu time spent up to now is     9597.9 secs

     total energy              =   -1443.67676940 Ry
     estimated scf accuracy    <       0.00004259 Ry

     iteration #392     ecut=    60.00 Ry     beta= 0.70
     Davidson diagonalization with overlap
     ethr =  1.58E-11,  avg # of iterations =  2.5

     total cpu time spent up to now is     9607.4 secs

     total energy              =   -1443.67676937 Ry
     estimated scf accuracy    <       0.00004213 Ry

     iteration #393     ecut=    60.00 Ry     beta= 0.70
     Davidson diagonalization with overlap
     ethr =  1.58E-11,  avg # of iterations =  1.4

     total cpu time spent up to now is     9616.2 secs

     total energy              =   -1443.67676328 Ry
     estimated scf accuracy    <       0.00004159 Ry

     iteration #394     ecut=    60.00 Ry     beta= 0.70
     Davidson diagonalization with overlap
     c_bands:  1 eigenvalues not converged
     c_bands:  1 eigenvalues not converged
     ethr =  1.58E-11,  avg # of iterations = 16.3

     total cpu time spent up to now is     9642.3 secs

     total energy              =   -1443.67677426 Ry
     estimated scf accuracy    <       0.00016079 Ry

     iteration #395     ecut=    60.00 Ry     beta= 0.70
     Davidson diagonalization with overlap
     c_bands:  1 eigenvalues not converged
     ethr =  1.58E-11,  avg # of iterations =  8.2

     total cpu time spent up to now is     9662.0 secs

     total energy              =   -1443.67677247 Ry
     estimated scf accuracy    <       0.00010651 Ry

     iteration #396     ecut=    60.00 Ry     beta= 0.70
     Davidson diagonalization with overlap
     ethr =  1.58E-11,  avg # of iterations =  7.0

     total cpu time spent up to now is     9679.4 secs

     total energy              =   -1443.67676991 Ry
     estimated scf accuracy    <       0.00008109 Ry

     iteration #397     ecut=    60.00 Ry     beta= 0.70
     Davidson diagonalization with overlap
     ethr =  1.58E-11,  avg # of iterations =  7.1

     total cpu time spent up to now is     9698.2 secs

     total energy              =   -1443.67676988 Ry
     estimated scf accuracy    <       0.00005143 Ry

     iteration #398     ecut=    60.00 Ry     beta= 0.70
     Davidson diagonalization with overlap
     ethr =  1.58E-11,  avg # of iterations =  6.5

     total cpu time spent up to now is     9710.0 secs

     total energy              =   -1443.67676975 Ry
     estimated scf accuracy    <       0.00004850 Ry

     iteration #399     ecut=    60.00 Ry     beta= 0.70
     Davidson diagonalization with overlap
     ethr =  1.58E-11,  avg # of iterations =  1.7

     total cpu time spent up to now is     9719.0 secs

     total energy              =   -1443.67676962 Ry
     estimated scf accuracy    <       0.00004737 Ry

     iteration #400     ecut=    60.00 Ry     beta= 0.70
     Davidson diagonalization with overlap
     ethr =  1.58E-11,  avg # of iterations =  6.1

     total cpu time spent up to now is     9730.6 secs

     total energy              =   -1443.67677001 Ry
     estimated scf accuracy    <       0.00004529 Ry

     End of self-consistent calculation

     convergence NOT achieved after 400 iterations: stopping

     Writing config to output data dir ./K4ZrSnO6.save/

     init_run     :     29.80s CPU     30.53s WALL (       1 calls)
     electrons    :   8321.87s CPU   8841.81s WALL (      12 calls)
     update_pot   :    303.99s CPU    304.63s WALL (      11 calls)
     forces       :    174.19s CPU    175.37s WALL (      11 calls)
     stress       :    361.34s CPU    364.03s WALL (      11 calls)

     Called by init_run:
     wfcinit      :      6.99s CPU      7.55s WALL (       1 calls)
     potinit      :      7.39s CPU      7.43s WALL (       1 calls)
     hinit0       :     14.90s CPU     14.98s WALL (       1 calls)

     Called by electrons:
     c_bands      :   6679.71s CPU   7060.05s WALL (     672 calls)
     sum_band     :   1014.91s CPU   1116.26s WALL (     672 calls)
     v_of_rho     :     35.86s CPU     36.95s WALL (     684 calls)
     newd         :    253.17s CPU    284.69s WALL (     684 calls)
     PAW_pot      :    345.29s CPU    348.02s WALL (     695 calls)
     mix_rho      :      6.13s CPU      6.41s WALL (     672 calls)

     Called by c_bands:
     init_us_2    :     79.87s CPU     81.63s WALL (   53742 calls)
     init_us_2:cp :     79.56s CPU     81.50s WALL (   53742 calls)
     cegterg      :   6430.70s CPU   6807.15s WALL (   26208 calls)

     Called by *egterg:
     cdiaghg      :   1434.00s CPU   1453.57s WALL (  158953 calls)
     h_psi        :   3570.36s CPU   3909.79s WALL (  159421 calls)
     s_psi        :    312.21s CPU    315.11s WALL (  159421 calls)
     g_psi        :     54.60s CPU     55.05s WALL (  133174 calls)

     Called by h_psi:
     h_psi:calbec :    345.84s CPU    360.13s WALL (  159421 calls)
     vloc_psi     :   2893.02s CPU   3214.71s WALL (  159421 calls)
     add_vuspsi   :    316.86s CPU    320.30s WALL (  159421 calls)

     General routines
     calbec       :    461.69s CPU    480.76s WALL (  188203 calls)
     fft          :     17.73s CPU     19.34s WALL (    9156 calls)
     ffts         :      1.26s CPU      1.34s WALL (    1356 calls)
     fftw         :   3096.25s CPU   3443.07s WALL ( 8241684 calls)
     interpolate  :      2.17s CPU      2.35s WALL (     684 calls)
     davcio       :      0.00s CPU      0.66s WALL (      57 calls)

     Parallel routines

     PWSCF        :      2h33m CPU      2h42m WALL


   This run was terminated on:  12:25:48   1Dec2025            

=------------------------------------------------------------------------------=
   JOB DONE.
=------------------------------------------------------------------------------=
STOP 255
STOP 255
STOP 255
STOP 255
STOP 255
STOP 255
STOP 255
STOP 255
STOP 255
STOP 255
STOP 255
STOP 255
STOP 255
STOP 255
STOP 255
STOP 255
--------------------------------------------------------------------------
Primary job  terminated normally, but 1 process returned
a non-zero exit code. Per user-direction, the job has been aborted.
--------------------------------------------------------------------------
--------------------------------------------------------------------------
mpirun detected that one or more processes exited with non-zero status, thus causing
the job to be terminated. The first process to do so was:

  Process name: [[14057,1],6]
  Exit code:    255
--------------------------------------------------------------------------
