
     Program PWSCF v.7.1 starts on  2Dec2025 at  2:53:15 

     This program is part of the open-source Quantum ESPRESSO suite
     for quantum simulation of materials; please cite
         "P. Giannozzi et al., J. Phys.:Condens. Matter 21 395502 (2009);
         "P. Giannozzi et al., J. Phys.:Condens. Matter 29 465901 (2017);
         "P. Giannozzi et al., J. Chem. Phys. 152 154105 (2020);
          URL http://www.quantum-espresso.org", 
     in publications or presentations arising from this work. More details at
     http://www.quantum-espresso.org/quote

     Parallel version (MPI & OpenMP), running on      16 processor cores
     Number of MPI processes:                16
     Threads/MPI process:                     1

     MPI processes distributed on     1 nodes
     66995 MiB available memory on the printing compute node when the environment starts

     Waiting for input...
     Reading input from standard input

     Current dimensions of program PWSCF are:
     Max number of different atomic species (ntypx) = 10
     Max number of k-points (npk) =  40000
     Max angular momentum in pseudopotentials (lmaxx) =  4
     Message from routine read_pp_mesh:
     mismatch in mesh size, discarding the one in header
     Message from routine read_pp_mesh:
     mismatch in mesh size, discarding the one in header
     Message from routine read_pp_mesh:
     mismatch in mesh size, discarding the one in header
     Message from routine setup:
     using ibrav=0 with symmetry is DISCOURAGED, use correct ibrav instead

     R & G space division:  proc/nbgrp/npool/nimage =      16
     Subspace diagonalization in iterative solution of the eigenvalue problem:
     a serial algorithm will be used


     Parallelization info
     --------------------
     sticks:   dense  smooth     PW     G-vecs:    dense   smooth      PW
     Min         133      67     19                 4641     1637     253
     Max         135      69     20                 4642     1638     255
     Sum        2145    1085    305                74269    26193    4067

     Using Slab Decomposition



     bravais-lattice index     =            0
     lattice parameter (alat)  =       7.4833  a.u.
     unit-cell volume          =     419.0657 (a.u.)^3
     number of atoms/cell      =            5
     number of atomic types    =            3
     number of electrons       =        40.00
     number of Kohn-Sham states=           20
     kinetic-energy cutoff     =      60.0000  Ry
     charge density cutoff     =     480.0000  Ry
     scf convergence threshold =      1.0E-10
     mixing beta               =       0.7000
     number of iterations used =            8  plain     mixing
     energy convergence thresh.=      1.0E-04
     force convergence thresh. =      1.0E-05
     press convergence thresh. =      5.0E-01
     Exchange-correlation= SLA PW PBX PBC
                           (   1   4   3   4   0   0   0)
     nstep                     =          300


     celldm(1)=   7.483315  celldm(2)=   0.000000  celldm(3)=   0.000000
     celldm(4)=   0.000000  celldm(5)=   0.000000  celldm(6)=   0.000000

     crystal axes: (cart. coord. in units of alat)
               a(1) = (   1.000000   0.000000   0.000000 )  
               a(2) = (   0.000000   1.000000   0.000000 )  
               a(3) = (   0.000000   0.000000   1.000000 )  

     reciprocal axes: (cart. coord. in units 2 pi/alat)
               b(1) = (  1.000000  0.000000  0.000000 )  
               b(2) = (  0.000000  1.000000  0.000000 )  
               b(3) = (  0.000000  0.000000  1.000000 )  


     PseudoPot. # 1 for V  read from file:
     ./V.upf
     MD5 check sum: 7f2f11533c26bed1e4abef38184b9f47
     Pseudo is Projector augmented-wave + core cor, Zval = 13.0
     Generated using ATOMPAW code
     Shape of augmentation charge: BESSEL
     Using radial grid of 2342 points,  6 beta functions with: 
                l(1) =   0
                l(2) =   0
                l(3) =   1
                l(4) =   1
                l(5) =   2
                l(6) =   2
     Q(r) pseudized with 0 coefficients 


     PseudoPot. # 2 for K  read from file:
     ./K.upf
     MD5 check sum: 9356cfae17991a8ac93a0af773ad5d28
     Pseudo is Projector augmented-wave + core cor, Zval =  9.0
     Generated using ATOMPAW code
     Shape of augmentation charge: SINC**2
     Using radial grid of 2342 points,  5 beta functions with: 
                l(1) =   0
                l(2) =   0
                l(3) =   1
                l(4) =   1
                l(5) =   2
     Q(r) pseudized with 0 coefficients 


     PseudoPot. # 3 for O  read from file:
     ./O.upf
     MD5 check sum: 45fbb1c0d1f8837f1e386a2947d3aa26
     Pseudo is Projector augmented-wave + core cor, Zval =  6.0
     Generated using ATOMPAW code
     Shape of augmentation charge: SINC**2
     Using radial grid of 2342 points,  4 beta functions with: 
                l(1) =   0
                l(2) =   0
                l(3) =   1
                l(4) =   1
     Q(r) pseudized with 0 coefficients 


     atomic species   valence    mass     pseudopotential
        V             13.00    50.94150     V ( 1.00)
        K              9.00    39.09800     K ( 1.00)
        O              6.00    15.99900     O ( 1.00)

     48 Sym. Ops., with inversion, found



   Cartesian axes

     site n.     atom                  positions (alat units)
         1           K   tau(   1) = (   0.0000000   0.0000000   0.0000000  )
         2           V   tau(   2) = (   0.5000000   0.5000000   0.5000000  )
         3           O   tau(   3) = (   0.5000000   0.5000000   0.0000000  )
         4           O   tau(   4) = (   0.5000000   0.0000000   0.5000000  )
         5           O   tau(   5) = (   0.0000000   0.5000000   0.5000000  )

     number of k points=    10
                       cart. coord. in units 2pi/alat
        k(    1) = (   0.0000000   0.0000000   0.0000000), wk =   0.0160000
        k(    2) = (   0.0000000   0.0000000   0.2000000), wk =   0.0960000
        k(    3) = (   0.0000000   0.0000000   0.4000000), wk =   0.0960000
        k(    4) = (   0.0000000   0.2000000   0.2000000), wk =   0.1920000
        k(    5) = (   0.0000000   0.2000000   0.4000000), wk =   0.3840000
        k(    6) = (   0.0000000   0.4000000   0.4000000), wk =   0.1920000
        k(    7) = (   0.2000000   0.2000000   0.2000000), wk =   0.1280000
        k(    8) = (   0.2000000   0.2000000   0.4000000), wk =   0.3840000
        k(    9) = (   0.2000000   0.4000000   0.4000000), wk =   0.3840000
        k(   10) = (   0.4000000   0.4000000   0.4000000), wk =   0.1280000

     Dense  grid:    74269 G-vectors     FFT dimensions: (  54,  54,  54)

     Smooth grid:    26193 G-vectors     FFT dimensions: (  40,  40,  40)

     Estimated max dynamical RAM per process >      28.64 MB

     Estimated total dynamical RAM >     458.19 MB

     Check: negative core charge=   -0.000001

     Initial potential from superposition of free atoms

     starting charge      39.9793, renormalised to      40.0000
     Starting wfcs are   55 randomized atomic wfcs
     Checking if some PAW data can be deallocated... 

     total cpu time spent up to now is        3.2 secs

     per-process dynamical memory:    56.1 Mb

     Self-consistent Calculation

     iteration #  1     ecut=    60.00 Ry     beta= 0.70
     Davidson diagonalization with overlap
     ethr =  1.00E-02,  avg # of iterations =  1.0

     total cpu time spent up to now is        3.6 secs

     total energy              =    -450.35527530 Ry
     estimated scf accuracy    <       3.05452509 Ry

     iteration #  2     ecut=    60.00 Ry     beta= 0.70
     Davidson diagonalization with overlap
     ethr =  7.64E-03,  avg # of iterations =  4.1

     total cpu time spent up to now is        4.1 secs

     total energy              =    -447.88990218 Ry
     estimated scf accuracy    <      49.45709179 Ry

     iteration #  3     ecut=    60.00 Ry     beta= 0.70
     Davidson diagonalization with overlap
     ethr =  7.64E-03,  avg # of iterations =  5.0

     total cpu time spent up to now is        4.7 secs

     total energy              =    -451.74369649 Ry
     estimated scf accuracy    <       0.68644844 Ry

     iteration #  4     ecut=    60.00 Ry     beta= 0.70
     Davidson diagonalization with overlap
     ethr =  1.72E-03,  avg # of iterations =  1.7

     total cpu time spent up to now is        5.1 secs

     total energy              =    -451.68866090 Ry
     estimated scf accuracy    <       0.35394364 Ry

     iteration #  5     ecut=    60.00 Ry     beta= 0.70
     Davidson diagonalization with overlap
     ethr =  8.85E-04,  avg # of iterations =  4.3

     total cpu time spent up to now is        5.6 secs

     total energy              =    -451.92253237 Ry
     estimated scf accuracy    <       0.02899349 Ry

     iteration #  6     ecut=    60.00 Ry     beta= 0.70
     Davidson diagonalization with overlap
     ethr =  7.25E-05,  avg # of iterations =  4.6

     total cpu time spent up to now is        6.0 secs

     total energy              =    -452.32115617 Ry
     estimated scf accuracy    <       0.73022574 Ry

     iteration #  7     ecut=    60.00 Ry     beta= 0.70
     Davidson diagonalization with overlap
     ethr =  7.25E-05,  avg # of iterations =  2.9

     total cpu time spent up to now is        6.5 secs

     total energy              =    -452.28079305 Ry
     estimated scf accuracy    <       0.50994766 Ry

     iteration #  8     ecut=    60.00 Ry     beta= 0.70
     Davidson diagonalization with overlap
     ethr =  7.25E-05,  avg # of iterations =  3.0

     total cpu time spent up to now is        6.9 secs

     total energy              =    -452.20258104 Ry
     estimated scf accuracy    <       0.32050985 Ry

     iteration #  9     ecut=    60.00 Ry     beta= 0.70
     Davidson diagonalization with overlap
     ethr =  7.25E-05,  avg # of iterations =  3.8

     total cpu time spent up to now is        7.4 secs

     total energy              =    -452.22632918 Ry
     estimated scf accuracy    <       0.01344004 Ry

     iteration # 10     ecut=    60.00 Ry     beta= 0.70
     Davidson diagonalization with overlap
     ethr =  3.36E-05,  avg # of iterations =  2.7

     total cpu time spent up to now is        7.8 secs

     total energy              =    -452.22542395 Ry
     estimated scf accuracy    <       0.00297928 Ry

     iteration # 11     ecut=    60.00 Ry     beta= 0.70
     Davidson diagonalization with overlap
     ethr =  7.45E-06,  avg # of iterations =  4.3

     total cpu time spent up to now is        8.3 secs

     total energy              =    -452.29596820 Ry
     estimated scf accuracy    <       0.01025905 Ry

     iteration # 12     ecut=    60.00 Ry     beta= 0.70
     Davidson diagonalization with overlap
     ethr =  7.45E-06,  avg # of iterations =  1.0

     total cpu time spent up to now is        8.7 secs

     total energy              =    -452.29533982 Ry
     estimated scf accuracy    <       0.01119806 Ry

     iteration # 13     ecut=    60.00 Ry     beta= 0.70
     Davidson diagonalization with overlap
     ethr =  7.45E-06,  avg # of iterations =  1.0

     total cpu time spent up to now is        9.1 secs

     total energy              =    -452.29567512 Ry
     estimated scf accuracy    <       0.00906150 Ry

     iteration # 14     ecut=    60.00 Ry     beta= 0.70
     Davidson diagonalization with overlap
     ethr =  7.45E-06,  avg # of iterations =  1.0

     total cpu time spent up to now is        9.4 secs

     total energy              =    -452.29490937 Ry
     estimated scf accuracy    <       0.00997431 Ry

     iteration # 15     ecut=    60.00 Ry     beta= 0.70
     Davidson diagonalization with overlap
     ethr =  7.45E-06,  avg # of iterations =  1.0

     total cpu time spent up to now is        9.8 secs

     total energy              =    -452.29829255 Ry
     estimated scf accuracy    <       0.00745150 Ry

     iteration # 16     ecut=    60.00 Ry     beta= 0.70
     Davidson diagonalization with overlap
     ethr =  7.45E-06,  avg # of iterations =  3.9

     total cpu time spent up to now is       10.3 secs

     total energy              =    -452.28037724 Ry
     estimated scf accuracy    <       0.04335952 Ry

     iteration # 17     ecut=    60.00 Ry     beta= 0.70
     Davidson diagonalization with overlap
     ethr =  7.45E-06,  avg # of iterations =  4.4

     total cpu time spent up to now is       10.8 secs

     total energy              =    -452.29767200 Ry
     estimated scf accuracy    <       0.08022977 Ry

     iteration # 18     ecut=    60.00 Ry     beta= 0.70
     Davidson diagonalization with overlap
     ethr =  7.45E-06,  avg # of iterations =  3.2

     total cpu time spent up to now is       11.3 secs

     total energy              =    -452.28981445 Ry
     estimated scf accuracy    <       0.03581996 Ry

     iteration # 19     ecut=    60.00 Ry     beta= 0.70
     Davidson diagonalization with overlap
     ethr =  7.45E-06,  avg # of iterations =  3.9

     total cpu time spent up to now is       11.8 secs

     total energy              =    -452.29457755 Ry
     estimated scf accuracy    <       0.00093237 Ry

     iteration # 20     ecut=    60.00 Ry     beta= 0.70
     Davidson diagonalization with overlap
     ethr =  2.33E-06,  avg # of iterations =  1.0

     total cpu time spent up to now is       12.2 secs

     total energy              =    -452.29461417 Ry
     estimated scf accuracy    <       0.00095094 Ry

     iteration # 21     ecut=    60.00 Ry     beta= 0.70
     Davidson diagonalization with overlap
     ethr =  2.33E-06,  avg # of iterations =  1.0

     total cpu time spent up to now is       12.5 secs

     total energy              =    -452.29457972 Ry
     estimated scf accuracy    <       0.00112449 Ry

     iteration # 22     ecut=    60.00 Ry     beta= 0.70
     Davidson diagonalization with overlap
     ethr =  2.33E-06,  avg # of iterations =  1.0

     total cpu time spent up to now is       12.9 secs

     total energy              =    -452.29444318 Ry
     estimated scf accuracy    <       0.00100031 Ry

     iteration # 23     ecut=    60.00 Ry     beta= 0.70
     Davidson diagonalization with overlap
     ethr =  2.33E-06,  avg # of iterations =  1.2

     total cpu time spent up to now is       13.3 secs

     total energy              =    -452.29445678 Ry
     estimated scf accuracy    <       0.00044022 Ry

     iteration # 24     ecut=    60.00 Ry     beta= 0.70
     Davidson diagonalization with overlap
     ethr =  1.10E-06,  avg # of iterations =  2.6

     total cpu time spent up to now is       13.7 secs

     total energy              =    -452.29442221 Ry
     estimated scf accuracy    <       0.00020884 Ry

     iteration # 25     ecut=    60.00 Ry     beta= 0.70
     Davidson diagonalization with overlap
     ethr =  5.22E-07,  avg # of iterations =  3.5

     total cpu time spent up to now is       14.1 secs

     total energy              =    -452.30708332 Ry
     estimated scf accuracy    <       0.00271973 Ry

     iteration # 26     ecut=    60.00 Ry     beta= 0.70
     Davidson diagonalization with overlap
     ethr =  5.22E-07,  avg # of iterations =  1.0

     total cpu time spent up to now is       14.5 secs

     total energy              =    -452.30673374 Ry
     estimated scf accuracy    <       0.00261125 Ry

     iteration # 27     ecut=    60.00 Ry     beta= 0.70
     Davidson diagonalization with overlap
     ethr =  5.22E-07,  avg # of iterations =  4.4

     total cpu time spent up to now is       15.0 secs

     total energy              =    -452.32897679 Ry
     estimated scf accuracy    <       0.00806139 Ry

     iteration # 28     ecut=    60.00 Ry     beta= 0.70
     Davidson diagonalization with overlap
     ethr =  5.22E-07,  avg # of iterations =  1.0

     total cpu time spent up to now is       15.4 secs

     total energy              =    -452.33090258 Ry
     estimated scf accuracy    <       0.00733782 Ry

     iteration # 29     ecut=    60.00 Ry     beta= 0.70
     Davidson diagonalization with overlap
     ethr =  5.22E-07,  avg # of iterations =  5.6

     total cpu time spent up to now is       16.0 secs

     total energy              =    -452.35090027 Ry
     estimated scf accuracy    <       0.06600412 Ry

     iteration # 30     ecut=    60.00 Ry     beta= 0.70
     Davidson diagonalization with overlap
     ethr =  5.22E-07,  avg # of iterations =  3.9

     total cpu time spent up to now is       16.4 secs

     total energy              =    -452.34770441 Ry
     estimated scf accuracy    <       0.04743774 Ry

     iteration # 31     ecut=    60.00 Ry     beta= 0.70
     Davidson diagonalization with overlap
     ethr =  5.22E-07,  avg # of iterations =  3.9

     total cpu time spent up to now is       17.0 secs

     total energy              =    -452.34705605 Ry
     estimated scf accuracy    <       0.02120556 Ry

     iteration # 32     ecut=    60.00 Ry     beta= 0.70
     Davidson diagonalization with overlap
     ethr =  5.22E-07,  avg # of iterations =  3.9

     total cpu time spent up to now is       17.4 secs

     total energy              =    -452.35065284 Ry
     estimated scf accuracy    <       0.01163556 Ry

     iteration # 33     ecut=    60.00 Ry     beta= 0.70
     Davidson diagonalization with overlap
     ethr =  5.22E-07,  avg # of iterations =  4.3

     total cpu time spent up to now is       18.0 secs

     total energy              =    -452.33691013 Ry
     estimated scf accuracy    <       0.06032260 Ry

     iteration # 34     ecut=    60.00 Ry     beta= 0.70
     Davidson diagonalization with overlap
     ethr =  5.22E-07,  avg # of iterations =  5.1

     total cpu time spent up to now is       18.6 secs

     total energy              =    -452.34446372 Ry
     estimated scf accuracy    <       0.00862355 Ry

     iteration # 35     ecut=    60.00 Ry     beta= 0.70
     Davidson diagonalization with overlap
     ethr =  5.22E-07,  avg # of iterations =  4.3

     total cpu time spent up to now is       19.1 secs

     total energy              =    -452.34628838 Ry
     estimated scf accuracy    <       0.00267907 Ry

     iteration # 36     ecut=    60.00 Ry     beta= 0.70
     Davidson diagonalization with overlap
     ethr =  5.22E-07,  avg # of iterations =  1.0

     total cpu time spent up to now is       19.5 secs

     total energy              =    -452.34636855 Ry
     estimated scf accuracy    <       0.00280975 Ry

     iteration # 37     ecut=    60.00 Ry     beta= 0.70
     Davidson diagonalization with overlap
     ethr =  5.22E-07,  avg # of iterations =  1.8

     total cpu time spent up to now is       19.9 secs

     total energy              =    -452.34574236 Ry
     estimated scf accuracy    <       0.00353433 Ry

     iteration # 38     ecut=    60.00 Ry     beta= 0.70
     Davidson diagonalization with overlap
     ethr =  5.22E-07,  avg # of iterations =  3.9

     total cpu time spent up to now is       20.4 secs

     total energy              =    -452.34599095 Ry
     estimated scf accuracy    <       0.00004852 Ry

     iteration # 39     ecut=    60.00 Ry     beta= 0.70
     Davidson diagonalization with overlap
     ethr =  1.21E-07,  avg # of iterations =  1.0

     total cpu time spent up to now is       20.8 secs

     total energy              =    -452.34599197 Ry
     estimated scf accuracy    <       0.00002939 Ry

     iteration # 40     ecut=    60.00 Ry     beta= 0.70
     Davidson diagonalization with overlap
     ethr =  7.35E-08,  avg # of iterations =  1.9

     total cpu time spent up to now is       21.1 secs

     total energy              =    -452.34733470 Ry
     estimated scf accuracy    <       0.00024783 Ry

     iteration # 41     ecut=    60.00 Ry     beta= 0.70
     Davidson diagonalization with overlap
     ethr =  7.35E-08,  avg # of iterations =  4.2

     total cpu time spent up to now is       21.7 secs

     total energy              =    -452.34633602 Ry
     estimated scf accuracy    <       0.00408438 Ry

     iteration # 42     ecut=    60.00 Ry     beta= 0.70
     Davidson diagonalization with overlap
     ethr =  7.35E-08,  avg # of iterations =  4.9

     total cpu time spent up to now is       22.3 secs

     total energy              =    -452.34717333 Ry
     estimated scf accuracy    <       0.00203847 Ry

     iteration # 43     ecut=    60.00 Ry     beta= 0.70
     Davidson diagonalization with overlap
     ethr =  7.35E-08,  avg # of iterations =  3.8

     total cpu time spent up to now is       22.7 secs

     total energy              =    -452.34711056 Ry
     estimated scf accuracy    <       0.00066232 Ry

     iteration # 44     ecut=    60.00 Ry     beta= 0.70
     Davidson diagonalization with overlap
     ethr =  7.35E-08,  avg # of iterations =  3.9

     total cpu time spent up to now is       23.2 secs

     total energy              =    -452.34713827 Ry
     estimated scf accuracy    <       0.00003370 Ry

     iteration # 45     ecut=    60.00 Ry     beta= 0.70
     Davidson diagonalization with overlap
     ethr =  7.35E-08,  avg # of iterations =  3.1

     total cpu time spent up to now is       23.7 secs

     total energy              =    -452.34714074 Ry
     estimated scf accuracy    <       0.00000028 Ry

     iteration # 46     ecut=    60.00 Ry     beta= 0.70
     Davidson diagonalization with overlap
     ethr =  7.01E-10,  avg # of iterations =  4.0

     total cpu time spent up to now is       24.2 secs

     total energy              =    -452.34714135 Ry
     estimated scf accuracy    <       0.00000737 Ry

     iteration # 47     ecut=    60.00 Ry     beta= 0.70
     Davidson diagonalization with overlap
     ethr =  7.01E-10,  avg # of iterations =  3.1

     total cpu time spent up to now is       24.6 secs

     total energy              =    -452.34714134 Ry
     estimated scf accuracy    <       0.00000272 Ry

     iteration # 48     ecut=    60.00 Ry     beta= 0.70
     Davidson diagonalization with overlap
     ethr =  7.01E-10,  avg # of iterations =  1.0

     total cpu time spent up to now is       25.0 secs

     total energy              =    -452.34714088 Ry
     estimated scf accuracy    <       0.00000225 Ry

     iteration # 49     ecut=    60.00 Ry     beta= 0.70
     Davidson diagonalization with overlap
     ethr =  7.01E-10,  avg # of iterations =  3.9

     total cpu time spent up to now is       25.5 secs

     total energy              =    -452.34714119 Ry
     estimated scf accuracy    <       0.00000019 Ry

     iteration # 50     ecut=    60.00 Ry     beta= 0.70
     Davidson diagonalization with overlap
     ethr =  4.63E-10,  avg # of iterations =  1.0

     total cpu time spent up to now is       25.9 secs

     total energy              =    -452.34714119 Ry
     estimated scf accuracy    <       0.00000014 Ry

     iteration # 51     ecut=    60.00 Ry     beta= 0.70
     Davidson diagonalization with overlap
     ethr =  3.51E-10,  avg # of iterations =  1.0

     total cpu time spent up to now is       26.2 secs

     total energy              =    -452.34714118 Ry
     estimated scf accuracy    <       0.00000014 Ry

     iteration # 52     ecut=    60.00 Ry     beta= 0.70
     Davidson diagonalization with overlap
     ethr =  3.38E-10,  avg # of iterations =  1.0

     total cpu time spent up to now is       26.6 secs

     total energy              =    -452.34714117 Ry
     estimated scf accuracy    <       0.00000008 Ry

     iteration # 53     ecut=    60.00 Ry     beta= 0.70
     Davidson diagonalization with overlap
     ethr =  2.01E-10,  avg # of iterations =  2.2

     total cpu time spent up to now is       27.0 secs

     total energy              =    -452.34714119 Ry
     estimated scf accuracy    <          6.3E-09 Ry

     iteration # 54     ecut=    60.00 Ry     beta= 0.70
     Davidson diagonalization with overlap
     ethr =  1.57E-11,  avg # of iterations =  2.6

     total cpu time spent up to now is       27.4 secs

     total energy              =    -452.34714119 Ry
     estimated scf accuracy    <       0.00000001 Ry

     iteration # 55     ecut=    60.00 Ry     beta= 0.70
     Davidson diagonalization with overlap
     ethr =  1.57E-11,  avg # of iterations =  3.6

     total cpu time spent up to now is       27.9 secs

     total energy              =    -452.34714119 Ry
     estimated scf accuracy    <       0.00000009 Ry

     iteration # 56     ecut=    60.00 Ry     beta= 0.70
     Davidson diagonalization with overlap
     ethr =  1.57E-11,  avg # of iterations =  2.9

     total cpu time spent up to now is       28.3 secs

     total energy              =    -452.34714119 Ry
     estimated scf accuracy    <       0.00000004 Ry

     iteration # 57     ecut=    60.00 Ry     beta= 0.70
     Davidson diagonalization with overlap
     ethr =  1.57E-11,  avg # of iterations =  2.2

     total cpu time spent up to now is       28.7 secs

     total energy              =    -452.34714118 Ry
     estimated scf accuracy    <       0.00000002 Ry

     iteration # 58     ecut=    60.00 Ry     beta= 0.70
     Davidson diagonalization with overlap
     ethr =  1.57E-11,  avg # of iterations =  3.0

     total cpu time spent up to now is       29.2 secs

     total energy              =    -452.34714119 Ry
     estimated scf accuracy    <          2.1E-09 Ry

     iteration # 59     ecut=    60.00 Ry     beta= 0.70
     Davidson diagonalization with overlap
     ethr =  5.29E-12,  avg # of iterations =  3.2

     total cpu time spent up to now is       29.6 secs

     total energy              =    -452.34714119 Ry
     estimated scf accuracy    <          8.5E-09 Ry

     iteration # 60     ecut=    60.00 Ry     beta= 0.70
     Davidson diagonalization with overlap
     ethr =  5.29E-12,  avg # of iterations =  2.0

     total cpu time spent up to now is       30.0 secs

     total energy              =    -452.34714119 Ry
     estimated scf accuracy    <          8.8E-09 Ry

     iteration # 61     ecut=    60.00 Ry     beta= 0.70
     Davidson diagonalization with overlap
     ethr =  5.29E-12,  avg # of iterations =  3.2

     total cpu time spent up to now is       30.5 secs

     total energy              =    -452.34714118 Ry
     estimated scf accuracy    <       0.00000003 Ry

     iteration # 62     ecut=    60.00 Ry     beta= 0.70
     Davidson diagonalization with overlap
     ethr =  5.29E-12,  avg # of iterations =  3.7

     total cpu time spent up to now is       31.0 secs

     End of self-consistent calculation

          k = 0.0000 0.0000 0.0000 (  3287 PWs)   bands (ev):

   -58.4281 -32.1507 -32.1507 -32.1507 -20.0205 -10.3048  -9.3220  -9.3220
    -3.5657  -3.5657  -3.5657   4.0273   4.0273   4.0273   6.1349   6.1349
     6.1349   6.5757   6.5757   6.5757

          k = 0.0000 0.0000 0.2000 (  3271 PWs)   bands (ev):

   -58.4279 -32.1572 -32.1504 -32.1504 -20.0114 -10.2298  -9.3140  -9.3099
    -3.5462  -3.5462  -3.5081   3.3979   4.0498   4.0498   5.4943   5.4943
     5.7750   5.9787   6.3955   6.3955

          k = 0.0000 0.0000 0.4000 (  3286 PWs)   bands (ev):

   -58.4277 -32.1677 -32.1500 -32.1500 -19.9967 -10.1401  -9.3009  -9.2441
    -3.5143  -3.5143  -3.4158   2.4493   4.1461   4.1461   4.8049   4.8049
     5.1192   5.7433   6.3053   6.3053

          k = 0.0000 0.2000 0.2000 (  3275 PWs)   bands (ev):

   -58.4278 -32.1569 -32.1569 -32.1502 -20.0032 -10.1330  -9.3121  -9.2980
    -3.5605  -3.5261  -3.4683   3.3354   3.4746   4.0761   4.6387   5.2712
     5.7907   5.8266   5.9597   6.3576

          k = 0.0000 0.2000 0.4000 (  3305 PWs)   bands (ev):

   -58.4275 -32.1674 -32.1565 -32.1497 -19.9899 -10.0015  -9.2900  -9.2593
    -3.5353  -3.4931  -3.4529   2.4402   3.4631   3.8671   4.1845   4.7223
     5.5214   5.6095   5.8942   6.3857

          k = 0.0000 0.4000 0.4000 (  3279 PWs)   bands (ev):

   -58.4273 -32.1669 -32.1669 -32.1493 -19.9789  -9.7601  -9.2916  -9.2695
    -3.5544  -3.5213  -3.4582   2.3256   2.5547   3.1393   4.3143   4.5469
     5.0016   5.6821   5.7612   6.9480

          k = 0.2000 0.2000 0.2000 (  3269 PWs)   bands (ev):

   -58.4276 -32.1567 -32.1566 -32.1566 -19.9957 -10.0213  -9.2964  -9.2964
    -3.5777  -3.5777  -3.4157   3.2722   3.4941   3.4941   4.6684   4.6684
     4.6934   6.2182   6.2182   6.4514

          k = 0.2000 0.2000 0.4000 (  3296 PWs)   bands (ev):

   -58.4274 -32.1671 -32.1562 -32.1561 -19.9835  -9.8593  -9.2707  -9.2622
    -3.6066  -3.5494  -3.4440   2.4376   3.4361   3.5481   3.8306   4.1254
     4.7295   6.2023   6.2083   6.5030

          k = 0.2000 0.4000 0.4000 (  3281 PWs)   bands (ev):

   -58.4271 -32.1666 -32.1666 -32.1557 -19.9730  -9.6107  -9.2635  -9.2481
    -3.6387  -3.6312  -3.5194   2.3334   2.5604   3.2958   3.6311   4.0729
     4.1235   6.3214   6.3662   6.9576

          k = 0.4000 0.4000 0.4000 (  3283 PWs)   bands (ev):

   -58.4269 -32.1661 -32.1661 -32.1661 -19.9635  -9.3491  -9.2166  -9.2166
    -3.7559  -3.7559  -3.6820   2.2423   2.5705   2.5705   3.5093   3.6437
     3.6437   6.9125   6.9125   7.0106

     highest occupied level (ev):     7.0106

!    total energy              =    -452.34714118 Ry
     total all-electron energy =      -452.347141 Ry
     estimated scf accuracy    <          4.0E-11 Ry

     The total energy is the sum of the following terms:
     one-electron contribution =    -111.91897463 Ry
     hartree contribution      =      74.04231699 Ry
     xc contribution           =     -46.37196202 Ry
     ewald contribution        =    -208.84639570 Ry
     one-center paw contrib.   =    -159.25212582 Ry

     convergence has been achieved in  62 iterations

     Forces acting on atoms (cartesian axes, Ry/au):

     atom    1 type  2   force =     0.00000000    0.00000000    0.00000000
     atom    2 type  1   force =     0.00000000    0.00000000    0.00000000
     atom    3 type  3   force =     0.00000000    0.00000000    0.00000000
     atom    4 type  3   force =     0.00000000    0.00000000    0.00000000
     atom    5 type  3   force =     0.00000000    0.00000000    0.00000000

     Total force =     0.000000     Total SCF correction =     0.000000


     Computing stress (Cartesian axis) and pressure

          total   stress  (Ry/bohr**3)                   (kbar)     P=     -134.58
  -0.00091485   0.00000000   0.00000000         -134.58        0.00        0.00
   0.00000000  -0.00091485   0.00000000            0.00     -134.58        0.00
   0.00000000   0.00000000  -0.00091485            0.00        0.00     -134.58


     BFGS Geometry Optimization
     Energy error            =      0.0E+00 Ry
     Gradient error          =      0.0E+00 Ry/Bohr
     Cell gradient error     =      1.3E+02 kbar

     number of scf cycles    =   1
     number of bfgs steps    =   0

     enthalpy           new  =    -452.3471411844 Ry

     new trust radius        =       0.0936399546 bohr
     new conv_thr            =            1.0E-10 Ry

     new unit-cell volume =    390.96467 a.u.^3 (    57.93499 Ang^3 )
     density =      3.95642 g/cm^3

CELL_PARAMETERS (angstrom)
   3.869429804   0.000000000   0.000000000
   0.000000000   3.869429804   0.000000000
   0.000000000   0.000000000   3.869429804

ATOMIC_POSITIONS (angstrom)
K             0.0000000000        0.0000000000        0.0000000000
V             1.9347149022        1.9347149022        1.9347149022
O             1.9347149022        1.9347149022        0.0000000000
O             1.9347149022        0.0000000000        1.9347149022
O             0.0000000000        1.9347149022        1.9347149022



     Writing config-only to output data dir ./KVO3.save/
     NEW-OLD atomic charge density approx. for the potential

     Check: negative core charge=   -0.000002
     extrapolated charge   37.12644, renormalised to   40.00000

     total cpu time spent up to now is       35.9 secs

     per-process dynamical memory:    69.6 Mb

     Self-consistent Calculation

     iteration #  1     ecut=    60.00 Ry     beta= 0.70
     Davidson diagonalization with overlap
     ethr =  1.00E-06,  avg # of iterations = 10.0

     total cpu time spent up to now is       36.7 secs

     total energy              =    -438.40206395 Ry
     estimated scf accuracy    <      14.23924743 Ry

     iteration #  2     ecut=    60.00 Ry     beta= 0.70
     Davidson diagonalization with overlap
     ethr =  1.00E-02,  avg # of iterations =  5.9

     total cpu time spent up to now is       37.3 secs

     total energy              =    -451.26443815 Ry
     estimated scf accuracy    <      39.46493608 Ry

     iteration #  3     ecut=    60.00 Ry     beta= 0.70
     Davidson diagonalization with overlap
     ethr =  1.00E-02,  avg # of iterations =  3.0

     total cpu time spent up to now is       37.8 secs

     total energy              =    -453.17991965 Ry
     estimated scf accuracy    <       7.67752689 Ry

     iteration #  4     ecut=    60.00 Ry     beta= 0.70
     Davidson diagonalization with overlap
     ethr =  1.00E-02,  avg # of iterations =  1.0

     total cpu time spent up to now is       38.2 secs

     total energy              =    -452.04738035 Ry
     estimated scf accuracy    <       4.52015802 Ry

     iteration #  5     ecut=    60.00 Ry     beta= 0.70
     Davidson diagonalization with overlap
     ethr =  1.00E-02,  avg # of iterations =  2.4

     total cpu time spent up to now is       38.6 secs

     total energy              =    -452.60095299 Ry
     estimated scf accuracy    <       0.88080822 Ry

     iteration #  6     ecut=    60.00 Ry     beta= 0.70
     Davidson diagonalization with overlap
     ethr =  2.20E-03,  avg # of iterations =  1.0

     total cpu time spent up to now is       38.9 secs

     total energy              =    -452.50225508 Ry
     estimated scf accuracy    <       1.20781540 Ry

     iteration #  7     ecut=    60.00 Ry     beta= 0.70
     Davidson diagonalization with overlap
     ethr =  2.20E-03,  avg # of iterations =  1.0

     total cpu time spent up to now is       39.3 secs

     total energy              =    -452.41250417 Ry
     estimated scf accuracy    <       0.98939486 Ry

     iteration #  8     ecut=    60.00 Ry     beta= 0.70
     Davidson diagonalization with overlap
     ethr =  2.20E-03,  avg # of iterations =  1.0

     total cpu time spent up to now is       39.7 secs

     total energy              =    -452.23399856 Ry
     estimated scf accuracy    <       0.76282127 Ry

     iteration #  9     ecut=    60.00 Ry     beta= 0.70
     Davidson diagonalization with overlap
     ethr =  1.91E-03,  avg # of iterations =  2.7

     total cpu time spent up to now is       40.1 secs

     total energy              =    -452.32302574 Ry
     estimated scf accuracy    <       0.15862452 Ry

     iteration # 10     ecut=    60.00 Ry     beta= 0.70
     Davidson diagonalization with overlap
     ethr =  3.97E-04,  avg # of iterations =  2.8

     total cpu time spent up to now is       40.5 secs

     total energy              =    -452.13868405 Ry
     estimated scf accuracy    <       0.36947961 Ry

     iteration # 11     ecut=    60.00 Ry     beta= 0.70
     Davidson diagonalization with overlap
     ethr =  3.97E-04,  avg # of iterations =  3.8

     total cpu time spent up to now is       41.0 secs

     total energy              =    -452.14388525 Ry
     estimated scf accuracy    <       0.45789898 Ry

     iteration # 12     ecut=    60.00 Ry     beta= 0.70
     Davidson diagonalization with overlap
     ethr =  3.97E-04,  avg # of iterations =  3.7

     total cpu time spent up to now is       41.5 secs

     total energy              =    -452.27292058 Ry
     estimated scf accuracy    <       0.14566644 Ry

     iteration # 13     ecut=    60.00 Ry     beta= 0.70
     Davidson diagonalization with overlap
     ethr =  3.64E-04,  avg # of iterations =  1.0

     total cpu time spent up to now is       41.9 secs

     total energy              =    -452.25967019 Ry
     estimated scf accuracy    <       0.12271276 Ry

     iteration # 14     ecut=    60.00 Ry     beta= 0.70
     Davidson diagonalization with overlap
     ethr =  3.07E-04,  avg # of iterations =  1.0

     total cpu time spent up to now is       42.2 secs

     total energy              =    -452.26411423 Ry
     estimated scf accuracy    <       0.06850836 Ry

     iteration # 15     ecut=    60.00 Ry     beta= 0.70
     Davidson diagonalization with overlap
     ethr =  1.71E-04,  avg # of iterations =  1.0

     total cpu time spent up to now is       42.6 secs

     total energy              =    -452.28120957 Ry
     estimated scf accuracy    <       0.07579571 Ry

     iteration # 16     ecut=    60.00 Ry     beta= 0.70
     Davidson diagonalization with overlap
     ethr =  1.71E-04,  avg # of iterations =  1.0

     total cpu time spent up to now is       43.0 secs

     total energy              =    -452.22894623 Ry
     estimated scf accuracy    <       0.12897532 Ry

     iteration # 17     ecut=    60.00 Ry     beta= 0.70
     Davidson diagonalization with overlap
     ethr =  1.71E-04,  avg # of iterations =  3.2

     total cpu time spent up to now is       43.4 secs

     total energy              =    -452.25063737 Ry
     estimated scf accuracy    <       0.02883288 Ry

     iteration # 18     ecut=    60.00 Ry     beta= 0.70
     Davidson diagonalization with overlap
     ethr =  7.21E-05,  avg # of iterations =  2.9

     total cpu time spent up to now is       43.9 secs

     total energy              =    -452.25631959 Ry
     estimated scf accuracy    <       0.00348968 Ry

     iteration # 19     ecut=    60.00 Ry     beta= 0.70
     Davidson diagonalization with overlap
     ethr =  8.72E-06,  avg # of iterations =  1.0

     total cpu time spent up to now is       44.2 secs

     total energy              =    -452.25677959 Ry
     estimated scf accuracy    <       0.00265647 Ry

     iteration # 20     ecut=    60.00 Ry     beta= 0.70
     Davidson diagonalization with overlap
     ethr =  6.64E-06,  avg # of iterations =  1.0

     total cpu time spent up to now is       44.6 secs

     total energy              =    -452.25641875 Ry
     estimated scf accuracy    <       0.00408466 Ry

     iteration # 21     ecut=    60.00 Ry     beta= 0.70
     Davidson diagonalization with overlap
     ethr =  6.64E-06,  avg # of iterations =  1.0

     total cpu time spent up to now is       45.0 secs

     total energy              =    -452.25600544 Ry
     estimated scf accuracy    <       0.00298249 Ry

     iteration # 22     ecut=    60.00 Ry     beta= 0.70
     Davidson diagonalization with overlap
     ethr =  6.64E-06,  avg # of iterations =  2.6

     total cpu time spent up to now is       45.4 secs

     total energy              =    -452.25608668 Ry
     estimated scf accuracy    <       0.00080408 Ry

     iteration # 23     ecut=    60.00 Ry     beta= 0.70
     Davidson diagonalization with overlap
     ethr =  2.01E-06,  avg # of iterations =  2.6

     total cpu time spent up to now is       45.8 secs

     total energy              =    -452.25616742 Ry
     estimated scf accuracy    <       0.00029870 Ry

     iteration # 24     ecut=    60.00 Ry     beta= 0.70
     Davidson diagonalization with overlap
     ethr =  7.47E-07,  avg # of iterations =  1.0

     total cpu time spent up to now is       46.1 secs

     total energy              =    -452.25606517 Ry
     estimated scf accuracy    <       0.00039068 Ry

     iteration # 25     ecut=    60.00 Ry     beta= 0.70
     Davidson diagonalization with overlap
     ethr =  7.47E-07,  avg # of iterations =  2.8

     total cpu time spent up to now is       46.6 secs

     total energy              =    -452.25611070 Ry
     estimated scf accuracy    <       0.00000004 Ry

     iteration # 26     ecut=    60.00 Ry     beta= 0.70
     Davidson diagonalization with overlap
     ethr =  8.79E-11,  avg # of iterations =  6.1

     total cpu time spent up to now is       47.2 secs

     total energy              =    -452.32844217 Ry
     estimated scf accuracy    <       0.04252244 Ry

     iteration # 27     ecut=    60.00 Ry     beta= 0.70
     Davidson diagonalization with overlap
     ethr =  8.79E-11,  avg # of iterations =  4.1

     total cpu time spent up to now is       47.7 secs

     total energy              =    -452.32840228 Ry
     estimated scf accuracy    <       0.04193626 Ry

     iteration # 28     ecut=    60.00 Ry     beta= 0.70
     Davidson diagonalization with overlap
     ethr =  8.79E-11,  avg # of iterations =  3.8

     total cpu time spent up to now is       48.2 secs

     total energy              =    -452.32880370 Ry
     estimated scf accuracy    <       0.04163866 Ry

     iteration # 29     ecut=    60.00 Ry     beta= 0.70
     Davidson diagonalization with overlap
     ethr =  8.79E-11,  avg # of iterations =  5.5

     total cpu time spent up to now is       48.8 secs

     total energy              =    -452.32885400 Ry
     estimated scf accuracy    <       0.04465264 Ry

     iteration # 30     ecut=    60.00 Ry     beta= 0.70
     Davidson diagonalization with overlap
     ethr =  8.79E-11,  avg # of iterations =  3.8

     total cpu time spent up to now is       49.3 secs

     total energy              =    -452.32758023 Ry
     estimated scf accuracy    <       0.04498301 Ry

     iteration # 31     ecut=    60.00 Ry     beta= 0.70
     Davidson diagonalization with overlap
     ethr =  8.79E-11,  avg # of iterations =  6.4

     total cpu time spent up to now is       50.0 secs

     total energy              =    -452.32848039 Ry
     estimated scf accuracy    <       0.03598365 Ry

     iteration # 32     ecut=    60.00 Ry     beta= 0.70
     Davidson diagonalization with overlap
     ethr =  8.79E-11,  avg # of iterations =  6.0

     total cpu time spent up to now is       50.6 secs

     total energy              =    -452.33074005 Ry
     estimated scf accuracy    <       0.04247473 Ry

     iteration # 33     ecut=    60.00 Ry     beta= 0.70
     Davidson diagonalization with overlap
     ethr =  8.79E-11,  avg # of iterations =  7.2

     total cpu time spent up to now is       51.3 secs

     total energy              =    -452.33018371 Ry
     estimated scf accuracy    <       0.05982907 Ry

     iteration # 34     ecut=    60.00 Ry     beta= 0.70
     Davidson diagonalization with overlap
     ethr =  8.79E-11,  avg # of iterations =  5.8

     total cpu time spent up to now is       51.9 secs

     total energy              =    -452.31618689 Ry
     estimated scf accuracy    <       0.05472112 Ry

     iteration # 35     ecut=    60.00 Ry     beta= 0.70
     Davidson diagonalization with overlap
     ethr =  8.79E-11,  avg # of iterations =  9.6

     total cpu time spent up to now is       52.7 secs

     total energy              =    -452.32300627 Ry
     estimated scf accuracy    <       0.00043823 Ry

     iteration # 36     ecut=    60.00 Ry     beta= 0.70
     Davidson diagonalization with overlap
     ethr =  8.79E-11,  avg # of iterations =  5.5

     total cpu time spent up to now is       53.3 secs

     total energy              =    -452.32299188 Ry
     estimated scf accuracy    <       0.00023824 Ry

     iteration # 37     ecut=    60.00 Ry     beta= 0.70
     Davidson diagonalization with overlap
     ethr =  8.79E-11,  avg # of iterations =  5.5

     total cpu time spent up to now is       53.9 secs

     total energy              =    -452.32298008 Ry
     estimated scf accuracy    <       0.00011211 Ry

     iteration # 38     ecut=    60.00 Ry     beta= 0.70
     Davidson diagonalization with overlap
     ethr =  8.79E-11,  avg # of iterations =  5.6

     total cpu time spent up to now is       54.5 secs

     total energy              =    -452.32297858 Ry
     estimated scf accuracy    <       0.00002260 Ry

     iteration # 39     ecut=    60.00 Ry     beta= 0.70
     Davidson diagonalization with overlap
     ethr =  8.79E-11,  avg # of iterations =  5.3

     total cpu time spent up to now is       55.1 secs

     total energy              =    -452.32298091 Ry
     estimated scf accuracy    <          1.2E-09 Ry

     iteration # 40     ecut=    60.00 Ry     beta= 0.70
     Davidson diagonalization with overlap
     ethr =  3.09E-12,  avg # of iterations =  3.2

     total cpu time spent up to now is       55.5 secs

     total energy              =    -452.32298091 Ry
     estimated scf accuracy    <          1.2E-10 Ry

     iteration # 41     ecut=    60.00 Ry     beta= 0.70
     Davidson diagonalization with overlap
     c_bands:  1 eigenvalues not converged
     ethr =  3.11E-13,  avg # of iterations =  7.1

     total cpu time spent up to now is       56.1 secs

     total energy              =    -452.34735121 Ry
     estimated scf accuracy    <       0.00520683 Ry

     iteration # 42     ecut=    60.00 Ry     beta= 0.70
     Davidson diagonalization with overlap
     ethr =  3.11E-13,  avg # of iterations =  5.4

     total cpu time spent up to now is       56.7 secs

     total energy              =    -452.34735190 Ry
     estimated scf accuracy    <       0.00516751 Ry

     iteration # 43     ecut=    60.00 Ry     beta= 0.70
     Davidson diagonalization with overlap
     ethr =  3.11E-13,  avg # of iterations =  3.9

     total cpu time spent up to now is       57.2 secs

     total energy              =    -452.34735292 Ry
     estimated scf accuracy    <       0.00517320 Ry

     iteration # 44     ecut=    60.00 Ry     beta= 0.70
     Davidson diagonalization with overlap
     ethr =  3.11E-13,  avg # of iterations =  3.9

     total cpu time spent up to now is       57.7 secs

     total energy              =    -452.34734923 Ry
     estimated scf accuracy    <       0.00518187 Ry

     iteration # 45     ecut=    60.00 Ry     beta= 0.70
     Davidson diagonalization with overlap
     ethr =  3.11E-13,  avg # of iterations =  4.8

     total cpu time spent up to now is       58.3 secs

     total energy              =    -452.34734327 Ry
     estimated scf accuracy    <       0.00515069 Ry

     iteration # 46     ecut=    60.00 Ry     beta= 0.70
     Davidson diagonalization with overlap
     ethr =  3.11E-13,  avg # of iterations =  5.1

     total cpu time spent up to now is       58.8 secs

     total energy              =    -452.34734680 Ry
     estimated scf accuracy    <       0.00510037 Ry

     iteration # 47     ecut=    60.00 Ry     beta= 0.70
     Davidson diagonalization with overlap
     ethr =  3.11E-13,  avg # of iterations =  4.8

     total cpu time spent up to now is       59.4 secs

     total energy              =    -452.34733595 Ry
     estimated scf accuracy    <       0.00513014 Ry

     iteration # 48     ecut=    60.00 Ry     beta= 0.70
     Davidson diagonalization with overlap
     ethr =  3.11E-13,  avg # of iterations =  5.6

     total cpu time spent up to now is       60.0 secs

     total energy              =    -452.34729544 Ry
     estimated scf accuracy    <       0.00503871 Ry

     iteration # 49     ecut=    60.00 Ry     beta= 0.70
     Davidson diagonalization with overlap
     ethr =  3.11E-13,  avg # of iterations =  6.7

     total cpu time spent up to now is       60.7 secs

     total energy              =    -452.34625766 Ry
     estimated scf accuracy    <       0.00470016 Ry

     iteration # 50     ecut=    60.00 Ry     beta= 0.70
     Davidson diagonalization with overlap
     ethr =  3.11E-13,  avg # of iterations = 10.7

     total cpu time spent up to now is       61.6 secs

     total energy              =    -452.34675041 Ry
     estimated scf accuracy    <       0.00000271 Ry

     iteration # 51     ecut=    60.00 Ry     beta= 0.70
     Davidson diagonalization with overlap
     ethr =  3.11E-13,  avg # of iterations =  4.7

     total cpu time spent up to now is       62.2 secs

     total energy              =    -452.34674962 Ry
     estimated scf accuracy    <       0.00000310 Ry

     iteration # 52     ecut=    60.00 Ry     beta= 0.70
     Davidson diagonalization with overlap
     ethr =  3.11E-13,  avg # of iterations =  7.9

     total cpu time spent up to now is       62.9 secs

     total energy              =    -452.34675007 Ry
     estimated scf accuracy    <       0.00000012 Ry

     iteration # 53     ecut=    60.00 Ry     beta= 0.70
     Davidson diagonalization with overlap
     ethr =  3.11E-13,  avg # of iterations =  2.9

     total cpu time spent up to now is       63.3 secs

     total energy              =    -452.34675003 Ry
     estimated scf accuracy    <       0.00000013 Ry

     iteration # 54     ecut=    60.00 Ry     beta= 0.70
     Davidson diagonalization with overlap
     ethr =  3.11E-13,  avg # of iterations =  5.7

     total cpu time spent up to now is       63.9 secs

     total energy              =    -452.34675005 Ry
     estimated scf accuracy    <          3.3E-09 Ry

     iteration # 55     ecut=    60.00 Ry     beta= 0.70
     Davidson diagonalization with overlap
     ethr =  3.11E-13,  avg # of iterations =  4.1

     total cpu time spent up to now is       64.4 secs

     End of self-consistent calculation

          k = 0.0000 0.0000 0.0000 (  3287 PWs)   bands (ev):

   -57.2519 -31.0052 -31.0052 -31.0052 -19.0401  -9.6573  -8.5975  -8.5975
    -2.6077  -2.6077  -2.6077   4.8459   4.8459   4.8459   6.9401   6.9401
     6.9401   7.4923   7.4923   7.4923

          k = 0.0000 0.0000 0.2047 (  3271 PWs)   bands (ev):

   -57.2516 -31.0145 -31.0048 -31.0048 -19.0269  -9.5829  -8.5875  -8.5712
    -2.5822  -2.5822  -2.5281   4.1758   4.8570   4.8570   6.2928   6.2928
     6.6265   6.7591   7.2841   7.2841

          k = 0.0000 0.0000 0.4094 (  3286 PWs)   bands (ev):

   -57.2512 -31.0295 -31.0041 -31.0041 -19.0054  -9.5106  -8.5713  -8.4593
    -2.5402  -2.5402  -2.4000   3.1409   4.9332   4.9332   5.5689   5.5689
     5.8934   6.4883   7.1731   7.1731

          k = 0.0000 0.2047 0.2047 (  3275 PWs)   bands (ev):

   -57.2514 -31.0141 -31.0140 -31.0044 -19.0151  -9.4781  -8.5728  -8.5609
    -2.5964  -2.5555  -2.4759   4.0933   4.2551   4.8718   5.3889   6.0337
     6.5948   6.7182   6.8047   7.2010

          k = 0.0000 0.2047 0.4094 (  3305 PWs)   bands (ev):

   -57.2510 -31.0290 -31.0134 -31.0037 -18.9959  -9.3503  -8.5485  -8.4831
    -2.5622  -2.5115  -2.4496   3.1304   4.2188   4.5535   4.9590   5.4626
     6.3111   6.4700   6.7204   7.2255

          k = 0.0000 0.4094 0.4094 (  3279 PWs)   bands (ev):

   -57.2506 -31.0283 -31.0282 -31.0031 -18.9804  -9.0778  -8.5263  -8.5028
    -2.5796  -2.5370  -2.4642   3.0293   3.2285   3.7379   5.0513   5.2490
     5.8622   6.4949   6.5922   7.8411

          k = 0.2047 0.2047 0.2047 (  3269 PWs)   bands (ev):

   -57.2512 -31.0138 -31.0136 -31.0136 -19.0044  -9.3522  -8.5530  -8.5530
    -2.6206  -2.6206  -2.4044   4.0039   4.2718   4.2718   5.4065   5.4065
     5.4939   7.0690   7.0690   9.2900

          k = 0.2047 0.2047 0.4094 (  3296 PWs)   bands (ev):

   -57.2508 -31.0285 -31.0130 -31.0129 -18.9869  -9.1832  -8.5204  -8.4870
    -2.6615  -2.5781  -2.4393   3.1279   4.1613   4.3217   4.5386   4.8422
     5.5044   7.0320   7.0609   7.3449

          k = 0.2047 0.4094 0.4094 (  3281 PWs)   bands (ev):

   -57.2504 -31.0278 -31.0278 -31.0123 -18.9723  -8.8974  -8.4903  -8.4749
    -2.7010  -2.6851  -2.5400   3.0429   3.2344   3.9327   4.4101   4.7846
     4.8678   7.1637   7.2177   7.8514

          k = 0.4094 0.4094 0.4094 (  3283 PWs)   bands (ev):

   -57.2500 -31.0271 -31.0270 -31.0270 -18.9592  -8.5820  -8.4299  -8.4299
    -2.8561  -2.8561  -2.7565   2.9792   3.2446   3.2446   4.2012   4.3621
     4.3621   7.8030   7.8030   7.9102

     highest occupied level (ev):     9.2900

!    total energy              =    -452.34675005 Ry
     total all-electron energy =      -452.346750 Ry
     estimated scf accuracy    <          5.1E-12 Ry

     The total energy is the sum of the following terms:
     one-electron contribution =    -104.62943993 Ry
     hartree contribution      =      71.83815602 Ry
     xc contribution           =     -46.55991296 Ry
     ewald contribution        =    -213.73477974 Ry
     one-center paw contrib.   =    -159.26077344 Ry

     convergence has been achieved in  55 iterations

     Forces acting on atoms (cartesian axes, Ry/au):

     atom    1 type  2   force =     0.00000000    0.00000000    0.00000000
     atom    2 type  1   force =     0.00000000    0.00000000    0.00000000
     atom    3 type  3   force =     0.00000000    0.00000000    0.00000000
     atom    4 type  3   force =     0.00000000    0.00000000    0.00000000
     atom    5 type  3   force =     0.00000000    0.00000000    0.00000000

     Total force =     0.000000     Total SCF correction =     0.000000


     Computing stress (Cartesian axis) and pressure

          total   stress  (Ry/bohr**3)                   (kbar)     P=      -35.16
  -0.00023902   0.00000000   0.00000000          -35.16        0.00        0.00
   0.00000000  -0.00023902   0.00000000            0.00      -35.16        0.00
   0.00000000   0.00000000  -0.00023902            0.00        0.00      -35.16

     Energy error            =      3.9E-04 Ry
     Gradient error          =      0.0E+00 Ry/Bohr
     Cell gradient error     =      3.5E+01 kbar

     number of scf cycles    =   2
     number of bfgs steps    =   1

     enthalpy           old  =    -452.3471411844 Ry
     enthalpy           new  =    -452.3467500512 Ry

     CASE: enthalpy          _new > enthalpy          _old

     new trust radius        =       0.0456033887 bohr
     new conv_thr            =            1.0E-10 Ry

     new unit-cell volume =    405.05856 a.u.^3 (    60.02349 Ang^3 )
     density =      3.81876 g/cm^3

CELL_PARAMETERS (angstrom)
   3.915378380   0.000000000   0.000000000
   0.000000000   3.915378380   0.000000000
   0.000000000   0.000000000   3.915378380

ATOMIC_POSITIONS (angstrom)
K             0.0000000000        0.0000000000        0.0000000000
V             1.9576891900        1.9576891900        1.9576891900
O             1.9576891900        1.9576891900        0.0000000000
O             1.9576891900        0.0000000000        1.9576891900
O             0.0000000000        1.9576891900        1.9576891900



     Writing config-only to output data dir ./KVO3.save/
     NEW-OLD atomic charge density approx. for the potential

     Check: negative core charge=   -0.000002
     extrapolated charge   41.39107, renormalised to   40.00000

     total cpu time spent up to now is       69.1 secs

     per-process dynamical memory:    70.3 Mb

     Self-consistent Calculation

     iteration #  1     ecut=    60.00 Ry     beta= 0.70
     Davidson diagonalization with overlap
     ethr =  1.00E-06,  avg # of iterations =  6.9

     total cpu time spent up to now is       69.8 secs

     total energy              =    -451.88704772 Ry
     estimated scf accuracy    <       0.39914134 Ry

     iteration #  2     ecut=    60.00 Ry     beta= 0.70
     Davidson diagonalization with overlap
     ethr =  9.98E-04,  avg # of iterations =  4.7

     total cpu time spent up to now is       70.4 secs

     total energy              =    -450.83670548 Ry
     estimated scf accuracy    <      27.65278343 Ry

     iteration #  3     ecut=    60.00 Ry     beta= 0.70
     Davidson diagonalization with overlap
     ethr =  9.98E-04,  avg # of iterations =  4.9

     total cpu time spent up to now is       71.0 secs

     total energy              =    -452.05704516 Ry
     estimated scf accuracy    <       1.16420592 Ry

     iteration #  4     ecut=    60.00 Ry     beta= 0.70
     Davidson diagonalization with overlap
     ethr =  9.98E-04,  avg # of iterations =  1.0

     total cpu time spent up to now is       71.3 secs

     total energy              =    -452.04944998 Ry
     estimated scf accuracy    <       0.90559344 Ry

     iteration #  5     ecut=    60.00 Ry     beta= 0.70
     Davidson diagonalization with overlap
     ethr =  9.98E-04,  avg # of iterations =  1.0

     total cpu time spent up to now is       71.7 secs

     total energy              =    -451.99178425 Ry
     estimated scf accuracy    <       0.81177220 Ry

     iteration #  6     ecut=    60.00 Ry     beta= 0.70
     Davidson diagonalization with overlap
     ethr =  9.98E-04,  avg # of iterations =  2.6

     total cpu time spent up to now is       72.1 secs

     total energy              =    -451.90228068 Ry
     estimated scf accuracy    <       0.38733818 Ry

     iteration #  7     ecut=    60.00 Ry     beta= 0.70
     Davidson diagonalization with overlap
     ethr =  9.68E-04,  avg # of iterations =  4.0

     total cpu time spent up to now is       72.6 secs

     total energy              =    -452.15242026 Ry
     estimated scf accuracy    <       0.21516408 Ry

     iteration #  8     ecut=    60.00 Ry     beta= 0.70
     Davidson diagonalization with overlap
     ethr =  5.38E-04,  avg # of iterations =  1.4

     total cpu time spent up to now is       72.9 secs

     total energy              =    -452.17557320 Ry
     estimated scf accuracy    <       0.09806453 Ry

     iteration #  9     ecut=    60.00 Ry     beta= 0.70
     Davidson diagonalization with overlap
     ethr =  2.45E-04,  avg # of iterations =  1.0

     total cpu time spent up to now is       73.3 secs

     total energy              =    -452.20451089 Ry
     estimated scf accuracy    <       0.14473659 Ry

     iteration # 10     ecut=    60.00 Ry     beta= 0.70
     Davidson diagonalization with overlap
     ethr =  2.45E-04,  avg # of iterations =  1.5

     total cpu time spent up to now is       73.7 secs

     total energy              =    -452.13910549 Ry
     estimated scf accuracy    <       0.23495479 Ry

     iteration # 11     ecut=    60.00 Ry     beta= 0.70
     Davidson diagonalization with overlap
     ethr =  2.45E-04,  avg # of iterations =  2.8

     total cpu time spent up to now is       74.1 secs

     total energy              =    -452.14576261 Ry
     estimated scf accuracy    <       0.02043426 Ry

     iteration # 12     ecut=    60.00 Ry     beta= 0.70
     Davidson diagonalization with overlap
     ethr =  5.11E-05,  avg # of iterations =  3.8

     total cpu time spent up to now is       74.6 secs

     total energy              =    -452.21649609 Ry
     estimated scf accuracy    <       0.00053769 Ry

     iteration # 13     ecut=    60.00 Ry     beta= 0.70
     Davidson diagonalization with overlap
     ethr =  1.34E-06,  avg # of iterations =  4.9

     total cpu time spent up to now is       75.1 secs

     total energy              =    -452.33324625 Ry
     estimated scf accuracy    <       0.17155768 Ry

     iteration # 14     ecut=    60.00 Ry     beta= 0.70
     Davidson diagonalization with overlap
     ethr =  1.34E-06,  avg # of iterations =  3.7

     total cpu time spent up to now is       75.6 secs

     total energy              =    -452.25605101 Ry
     estimated scf accuracy    <       0.11447761 Ry

     iteration # 15     ecut=    60.00 Ry     beta= 0.70
     Davidson diagonalization with overlap
     ethr =  1.34E-06,  avg # of iterations =  5.8

     total cpu time spent up to now is       76.2 secs

     total energy              =    -452.01061654 Ry
     estimated scf accuracy    <       1.70826980 Ry

     iteration # 16     ecut=    60.00 Ry     beta= 0.70
     Davidson diagonalization with overlap
     ethr =  1.34E-06,  avg # of iterations =  6.7

     total cpu time spent up to now is       76.9 secs

     total energy              =    -452.38818979 Ry
     estimated scf accuracy    <       0.29105931 Ry

     iteration # 17     ecut=    60.00 Ry     beta= 0.70
     Davidson diagonalization with overlap
     ethr =  1.34E-06,  avg # of iterations =  3.9

     total cpu time spent up to now is       77.4 secs

     total energy              =    -452.38270426 Ry
     estimated scf accuracy    <       0.46365311 Ry

     iteration # 18     ecut=    60.00 Ry     beta= 0.70
     Davidson diagonalization with overlap
     ethr =  1.34E-06,  avg # of iterations =  2.8

     total cpu time spent up to now is       77.8 secs

     total energy              =    -452.42320773 Ry
     estimated scf accuracy    <       0.41952195 Ry

     iteration # 19     ecut=    60.00 Ry     beta= 0.70
     Davidson diagonalization with overlap
     ethr =  1.34E-06,  avg # of iterations =  4.0

     total cpu time spent up to now is       78.4 secs

     total energy              =    -452.29030764 Ry
     estimated scf accuracy    <       0.64614576 Ry

     iteration # 20     ecut=    60.00 Ry     beta= 0.70
     Davidson diagonalization with overlap
     ethr =  1.34E-06,  avg # of iterations =  5.0

     total cpu time spent up to now is       78.9 secs

     total energy              =    -452.31568081 Ry
     estimated scf accuracy    <       0.06640765 Ry

     iteration # 21     ecut=    60.00 Ry     beta= 0.70
     Davidson diagonalization with overlap
     ethr =  1.34E-06,  avg # of iterations =  4.0

     total cpu time spent up to now is       79.5 secs

     total energy              =    -452.32005438 Ry
     estimated scf accuracy    <       0.00561587 Ry

     iteration # 22     ecut=    60.00 Ry     beta= 0.70
     Davidson diagonalization with overlap
     ethr =  1.34E-06,  avg # of iterations =  3.4

     total cpu time spent up to now is       79.9 secs

     total energy              =    -452.32096732 Ry
     estimated scf accuracy    <       0.01407972 Ry

     iteration # 23     ecut=    60.00 Ry     beta= 0.70
     Davidson diagonalization with overlap
     ethr =  1.34E-06,  avg # of iterations =  2.9

     total cpu time spent up to now is       80.4 secs

     total energy              =    -452.31764845 Ry
     estimated scf accuracy    <       0.02005532 Ry

     iteration # 24     ecut=    60.00 Ry     beta= 0.70
     Davidson diagonalization with overlap
     ethr =  1.34E-06,  avg # of iterations =  3.9

     total cpu time spent up to now is       80.9 secs

     total energy              =    -452.31839792 Ry
     estimated scf accuracy    <       0.00165778 Ry

     iteration # 25     ecut=    60.00 Ry     beta= 0.70
     Davidson diagonalization with overlap
     ethr =  1.34E-06,  avg # of iterations =  3.4

     total cpu time spent up to now is       81.3 secs

     total energy              =    -452.31852108 Ry
     estimated scf accuracy    <       0.00003217 Ry

     iteration # 26     ecut=    60.00 Ry     beta= 0.70
     Davidson diagonalization with overlap
     ethr =  8.04E-08,  avg # of iterations =  1.6

     total cpu time spent up to now is       81.7 secs

     total energy              =    -452.31851733 Ry
     estimated scf accuracy    <       0.00002044 Ry

     iteration # 27     ecut=    60.00 Ry     beta= 0.70
     Davidson diagonalization with overlap
     ethr =  5.11E-08,  avg # of iterations =  3.0

     total cpu time spent up to now is       82.1 secs

     total energy              =    -452.31852095 Ry
     estimated scf accuracy    <       0.00000176 Ry

     iteration # 28     ecut=    60.00 Ry     beta= 0.70
     Davidson diagonalization with overlap
     ethr =  4.40E-09,  avg # of iterations =  1.2

     total cpu time spent up to now is       82.5 secs

     total energy              =    -452.31852084 Ry
     estimated scf accuracy    <       0.00000136 Ry

     iteration # 29     ecut=    60.00 Ry     beta= 0.70
     Davidson diagonalization with overlap
     ethr =  3.39E-09,  avg # of iterations =  1.8

     total cpu time spent up to now is       82.9 secs

     total energy              =    -452.31852084 Ry
     estimated scf accuracy    <       0.00000035 Ry

     iteration # 30     ecut=    60.00 Ry     beta= 0.70
     Davidson diagonalization with overlap
     ethr =  8.78E-10,  avg # of iterations =  2.3

     total cpu time spent up to now is       83.3 secs

     total energy              =    -452.31852083 Ry
     estimated scf accuracy    <       0.00000012 Ry

     iteration # 31     ecut=    60.00 Ry     beta= 0.70
     Davidson diagonalization with overlap
     ethr =  2.94E-10,  avg # of iterations =  2.8

     total cpu time spent up to now is       83.7 secs

     total energy              =    -452.31852086 Ry
     estimated scf accuracy    <          9.6E-09 Ry

     iteration # 32     ecut=    60.00 Ry     beta= 0.70
     Davidson diagonalization with overlap
     ethr =  2.40E-11,  avg # of iterations =  4.0

     total cpu time spent up to now is       84.2 secs

     total energy              =    -452.33736452 Ry
     estimated scf accuracy    <       0.00498574 Ry

     iteration # 33     ecut=    60.00 Ry     beta= 0.70
     Davidson diagonalization with overlap
     ethr =  2.40E-11,  avg # of iterations =  1.0

     total cpu time spent up to now is       84.5 secs

     total energy              =    -452.33736367 Ry
     estimated scf accuracy    <       0.00498615 Ry

     iteration # 34     ecut=    60.00 Ry     beta= 0.70
     Davidson diagonalization with overlap
     ethr =  2.40E-11,  avg # of iterations =  1.1

     total cpu time spent up to now is       84.9 secs

     total energy              =    -452.33736383 Ry
     estimated scf accuracy    <       0.00498184 Ry

     iteration # 35     ecut=    60.00 Ry     beta= 0.70
     Davidson diagonalization with overlap
     ethr =  2.40E-11,  avg # of iterations =  1.0

     total cpu time spent up to now is       85.3 secs

     total energy              =    -452.33736167 Ry
     estimated scf accuracy    <       0.00498240 Ry

     iteration # 36     ecut=    60.00 Ry     beta= 0.70
     Davidson diagonalization with overlap
     ethr =  2.40E-11,  avg # of iterations =  3.1

     total cpu time spent up to now is       85.7 secs

     total energy              =    -452.33736039 Ry
     estimated scf accuracy    <       0.00495902 Ry

     iteration # 37     ecut=    60.00 Ry     beta= 0.70
     Davidson diagonalization with overlap
     ethr =  2.40E-11,  avg # of iterations =  2.2

     total cpu time spent up to now is       86.1 secs

     total energy              =    -452.33735849 Ry
     estimated scf accuracy    <       0.00495160 Ry

     iteration # 38     ecut=    60.00 Ry     beta= 0.70
     Davidson diagonalization with overlap
     ethr =  2.40E-11,  avg # of iterations =  2.9

     total cpu time spent up to now is       86.6 secs

     total energy              =    -452.33735653 Ry
     estimated scf accuracy    <       0.00492999 Ry

     iteration # 39     ecut=    60.00 Ry     beta= 0.70
     Davidson diagonalization with overlap
     ethr =  2.40E-11,  avg # of iterations =  3.1

     total cpu time spent up to now is       87.0 secs

     total energy              =    -452.33735738 Ry
     estimated scf accuracy    <       0.00491252 Ry

     iteration # 40     ecut=    60.00 Ry     beta= 0.70
     Davidson diagonalization with overlap
     ethr =  2.40E-11,  avg # of iterations =  1.0

     total cpu time spent up to now is       87.4 secs

     total energy              =    -452.33626419 Ry
     estimated scf accuracy    <       0.00491597 Ry

     iteration # 41     ecut=    60.00 Ry     beta= 0.70
     Davidson diagonalization with overlap
     ethr =  2.40E-11,  avg # of iterations =  8.9

     total cpu time spent up to now is       88.2 secs

     total energy              =    -452.33681656 Ry
     estimated scf accuracy    <       0.00005194 Ry

     iteration # 42     ecut=    60.00 Ry     beta= 0.70
     Davidson diagonalization with overlap
     ethr =  2.40E-11,  avg # of iterations =  5.4

     total cpu time spent up to now is       88.8 secs

     total energy              =    -452.33681798 Ry
     estimated scf accuracy    <       0.00000521 Ry

     iteration # 43     ecut=    60.00 Ry     beta= 0.70
     Davidson diagonalization with overlap
     ethr =  2.40E-11,  avg # of iterations =  4.7

     total cpu time spent up to now is       89.3 secs

     total energy              =    -452.33681823 Ry
     estimated scf accuracy    <       0.00000033 Ry

     iteration # 44     ecut=    60.00 Ry     beta= 0.70
     Davidson diagonalization with overlap
     ethr =  2.40E-11,  avg # of iterations =  2.9

     total cpu time spent up to now is       89.8 secs

     total energy              =    -452.33681822 Ry
     estimated scf accuracy    <       0.00000019 Ry

     iteration # 45     ecut=    60.00 Ry     beta= 0.70
     Davidson diagonalization with overlap
     ethr =  2.40E-11,  avg # of iterations =  3.2

     total cpu time spent up to now is       90.2 secs

     total energy              =    -452.33681821 Ry
     estimated scf accuracy    <       0.00000011 Ry

     iteration # 46     ecut=    60.00 Ry     beta= 0.70
     Davidson diagonalization with overlap
     ethr =  2.40E-11,  avg # of iterations =  2.8

     total cpu time spent up to now is       90.6 secs

     total energy              =    -452.33681820 Ry
     estimated scf accuracy    <       0.00000005 Ry

     iteration # 47     ecut=    60.00 Ry     beta= 0.70
     Davidson diagonalization with overlap
     ethr =  2.40E-11,  avg # of iterations =  3.2

     total cpu time spent up to now is       91.1 secs

     End of self-consistent calculation

          k = 0.0000 0.0000 0.0000 (  3287 PWs)   bands (ev):

   -57.7873 -31.5286 -31.5286 -31.5286 -19.5413 -10.0018  -8.9806  -8.9806
    -3.0980  -3.0980  -3.0980   4.4160   4.4160   4.4160   6.5117   6.5117
     6.5117   7.0072   7.0072   7.0072

          k = 0.0000 0.0000 0.2023 (  3271 PWs)   bands (ev):

   -57.7871 -31.5364 -31.5282 -31.5282 -19.5304  -9.9266  -8.9716  -8.9621
    -3.0757  -3.0757  -3.0304   3.7752   4.4338   4.4338   5.8838   5.8838
     6.1785   6.3439   6.8146   6.8146

          k = 0.0000 0.0000 0.4046 (  3286 PWs)   bands (ev):

   -57.7868 -31.5491 -31.5277 -31.5277 -19.5126  -9.8442  -8.9571  -8.8755
    -3.0390  -3.0390  -2.9220   2.7932   4.5215   4.5215   5.1802   5.1802
     5.4819   6.0920   6.7134   6.7134

          k = 0.0000 0.2023 0.2023 (  3275 PWs)   bands (ev):

   -57.7869 -31.5361 -31.5360 -31.5279 -19.5206  -9.8258  -8.9640  -8.9509
    -3.0902  -3.0525  -2.9849   3.7006   3.8569   4.4557   5.0038   5.6440
     6.1691   6.2621   6.3592   6.7532

          k = 0.0000 0.2023 0.4046 (  3305 PWs)   bands (ev):

   -57.7866 -31.5487 -31.5355 -31.5274 -19.5046  -9.6953  -8.9406  -8.8947
    -3.0609  -3.0144  -2.9648   2.7830   3.8323   4.1991   4.5560   5.0861
     5.8922   6.0276   6.2837   6.7809

          k = 0.0000 0.4046 0.4046 (  3279 PWs)   bands (ev):

   -57.7863 -31.5481 -31.5480 -31.5269 -19.4915  -9.4392  -8.9316  -8.9089
    -3.0797  -3.0421  -2.9738   2.6700   2.8952   3.4299   4.6735   4.8926
     5.4157   6.0628   6.1504   7.3664

          k = 0.2023 0.2023 0.2023 (  3269 PWs)   bands (ev):

   -57.7867 -31.5358 -31.5357 -31.5357 -19.5116  -9.7074  -8.9464  -8.9464
    -3.1106  -3.1106  -2.9236   3.6233   3.8754   3.8754   5.0285   5.0285
     5.0794   6.6198   6.6198   6.8437

          k = 0.2023 0.2023 0.4046 (  3296 PWs)   bands (ev):

   -57.7864 -31.5483 -31.5352 -31.5351 -19.4970  -9.5414  -8.9175  -8.8978
    -3.1448  -3.0760  -2.9551   2.7800   3.7904   3.9285   4.1709   4.4745
     5.1060   6.5934   6.6102   6.8986

          k = 0.2023 0.4046 0.4046 (  3281 PWs)   bands (ev):

   -57.7861 -31.5477 -31.5477 -31.5346 -19.4846  -9.2752  -8.8999  -8.8845
    -3.1805  -3.1695  -3.0421   2.6798   2.9011   3.6050   4.0118   4.4197
     4.4847   6.7174   6.7660   7.3764

          k = 0.4046 0.4046 0.4046 (  3283 PWs)   bands (ev):

   -57.7858 -31.5471 -31.5471 -31.5471 -19.4735  -8.9886  -8.8469  -8.8469
    -3.3153  -3.3153  -3.2296   2.5958   2.9115   2.9115   3.8449   3.9922
     3.9922   7.3297   7.3297   9.7570

     highest occupied level (ev):     9.7570

!    total energy              =    -452.33681821 Ry
     total all-electron energy =      -452.336818 Ry
     estimated scf accuracy    <          6.5E-11 Ry

     The total energy is the sum of the following terms:
     one-electron contribution =    -108.38590286 Ry
     hartree contribution      =      72.99278177 Ry
     xc contribution           =     -46.46672906 Ry
     ewald contribution        =    -211.22651420 Ry
     one-center paw contrib.   =    -159.25045385 Ry

     convergence has been achieved in  47 iterations

     Forces acting on atoms (cartesian axes, Ry/au):

     atom    1 type  2   force =     0.00000000    0.00000000    0.00000000
     atom    2 type  1   force =     0.00000000    0.00000000    0.00000000
     atom    3 type  3   force =     0.00000000    0.00000000    0.00000000
     atom    4 type  3   force =     0.00000000    0.00000000    0.00000000
     atom    5 type  3   force =     0.00000000    0.00000000    0.00000000

     Total force =     0.000000     Total SCF correction =     0.000000


     Computing stress (Cartesian axis) and pressure

          total   stress  (Ry/bohr**3)                   (kbar)     P=      -82.19
  -0.00055871   0.00000000   0.00000000          -82.19        0.00        0.00
   0.00000000  -0.00055871   0.00000000            0.00      -82.19        0.00
   0.00000000   0.00000000  -0.00055871            0.00        0.00      -82.19

     Energy error            =      1.0E-02 Ry
     Gradient error          =      0.0E+00 Ry/Bohr
     Cell gradient error     =      8.2E+01 kbar

     number of scf cycles    =   3
     number of bfgs steps    =   1

     enthalpy           old  =    -452.3471411844 Ry
     enthalpy           new  =    -452.3368182077 Ry

     CASE: enthalpy          _new > enthalpy          _old

     new trust radius        =       0.0127672220 bohr
     new conv_thr            =            1.0E-10 Ry

     new unit-cell volume =    415.13543 a.u.^3 (    61.51672 Ang^3 )
     density =      3.72606 g/cm^3

CELL_PARAMETERS (angstrom)
   3.947581154   0.000000000   0.000000000
   0.000000000   3.947581154   0.000000000
   0.000000000   0.000000000   3.947581154

ATOMIC_POSITIONS (angstrom)
K             0.0000000000        0.0000000000        0.0000000000
V             1.9737905769        1.9737905769        1.9737905769
O             1.9737905769        1.9737905769        0.0000000000
O             1.9737905769        0.0000000000        1.9737905769
O             0.0000000000        1.9737905769        1.9737905769



     Writing config-only to output data dir ./KVO3.save/
     NEW-OLD atomic charge density approx. for the potential

     Check: negative core charge=   -0.000001
     extrapolated charge   40.97045, renormalised to   40.00000

     total cpu time spent up to now is       96.0 secs

     per-process dynamical memory:    70.3 Mb

     Self-consistent Calculation

     iteration #  1     ecut=    60.00 Ry     beta= 0.70
     Davidson diagonalization with overlap
     ethr =  1.00E-06,  avg # of iterations =  6.7

     total cpu time spent up to now is       96.7 secs

     total energy              =    -452.05298480 Ry
     estimated scf accuracy    <       0.25193462 Ry

     iteration #  2     ecut=    60.00 Ry     beta= 0.70
     Davidson diagonalization with overlap
     ethr =  6.30E-04,  avg # of iterations =  4.7

     total cpu time spent up to now is       97.3 secs

     total energy              =    -451.07334012 Ry
     estimated scf accuracy    <      23.47984133 Ry

     iteration #  3     ecut=    60.00 Ry     beta= 0.70
     Davidson diagonalization with overlap
     ethr =  6.30E-04,  avg # of iterations =  5.2

     total cpu time spent up to now is       97.8 secs

     total energy              =    -452.05549938 Ry
     estimated scf accuracy    <       1.10085161 Ry

     iteration #  4     ecut=    60.00 Ry     beta= 0.70
     Davidson diagonalization with overlap
     ethr =  6.30E-04,  avg # of iterations =  1.0

     total cpu time spent up to now is       98.2 secs

     total energy              =    -452.06075748 Ry
     estimated scf accuracy    <       0.88310642 Ry

     iteration #  5     ecut=    60.00 Ry     beta= 0.70
     Davidson diagonalization with overlap
     ethr =  6.30E-04,  avg # of iterations =  1.0

     total cpu time spent up to now is       98.6 secs

     total energy              =    -452.02415578 Ry
     estimated scf accuracy    <       0.88132339 Ry

     iteration #  6     ecut=    60.00 Ry     beta= 0.70
     Davidson diagonalization with overlap
     ethr =  6.30E-04,  avg # of iterations =  1.7

     total cpu time spent up to now is       99.0 secs

     total energy              =    -451.96073092 Ry
     estimated scf accuracy    <       0.61273558 Ry

     iteration #  7     ecut=    60.00 Ry     beta= 0.70
     Davidson diagonalization with overlap
     ethr =  6.30E-04,  avg # of iterations =  3.5

     total cpu time spent up to now is       99.4 secs

     total energy              =    -452.04771963 Ry
     estimated scf accuracy    <       0.03732336 Ry

     iteration #  8     ecut=    60.00 Ry     beta= 0.70
     Davidson diagonalization with overlap
     ethr =  9.33E-05,  avg # of iterations =  4.0

     total cpu time spent up to now is       99.9 secs

     total energy              =    -452.14547936 Ry
     estimated scf accuracy    <       0.04379391 Ry

     iteration #  9     ecut=    60.00 Ry     beta= 0.70
     Davidson diagonalization with overlap
     ethr =  9.33E-05,  avg # of iterations =  3.2

     total cpu time spent up to now is      100.3 secs

     total energy              =    -452.15504188 Ry
     estimated scf accuracy    <       0.00191066 Ry

     iteration # 10     ecut=    60.00 Ry     beta= 0.70
     Davidson diagonalization with overlap
     ethr =  4.78E-06,  avg # of iterations =  4.6

     total cpu time spent up to now is      100.8 secs

     total energy              =    -452.29579289 Ry
     estimated scf accuracy    <       0.04287736 Ry

     iteration # 11     ecut=    60.00 Ry     beta= 0.70
     Davidson diagonalization with overlap
     ethr =  4.78E-06,  avg # of iterations =  3.8

     total cpu time spent up to now is      101.3 secs

     total energy              =    -452.29193360 Ry
     estimated scf accuracy    <       0.10135783 Ry

     iteration # 12     ecut=    60.00 Ry     beta= 0.70
     Davidson diagonalization with overlap
     ethr =  4.78E-06,  avg # of iterations =  3.2

     total cpu time spent up to now is      101.8 secs

     total energy              =    -452.30235440 Ry
     estimated scf accuracy    <       0.06703859 Ry

     iteration # 13     ecut=    60.00 Ry     beta= 0.70
     Davidson diagonalization with overlap
     ethr =  4.78E-06,  avg # of iterations =  3.7

     total cpu time spent up to now is      102.3 secs

     total energy              =    -452.30773821 Ry
     estimated scf accuracy    <       0.14746733 Ry

     iteration # 14     ecut=    60.00 Ry     beta= 0.70
     Davidson diagonalization with overlap
     ethr =  4.78E-06,  avg # of iterations =  1.4

     total cpu time spent up to now is      102.7 secs

     total energy              =    -452.30156639 Ry
     estimated scf accuracy    <       0.15891619 Ry

     iteration # 15     ecut=    60.00 Ry     beta= 0.70
     Davidson diagonalization with overlap
     ethr =  4.78E-06,  avg # of iterations =  2.8

     total cpu time spent up to now is      103.1 secs

     total energy              =    -452.30250154 Ry
     estimated scf accuracy    <       0.12941707 Ry

[...]

     iteration # 17     ecut=    60.00 Ry     beta= 0.70
     Davidson diagonalization with overlap
     ethr =  4.56E-07,  avg # of iterations =  3.1

     total cpu time spent up to now is      299.3 secs

     total energy              =    -452.32151166 Ry
     estimated scf accuracy    <       0.00128738 Ry

     iteration # 18     ecut=    60.00 Ry     beta= 0.70
     Davidson diagonalization with overlap
     ethr =  4.56E-07,  avg # of iterations =  3.9

     total cpu time spent up to now is      299.8 secs

     total energy              =    -452.32169399 Ry
     estimated scf accuracy    <       0.00002842 Ry

     iteration # 19     ecut=    60.00 Ry     beta= 0.70
     Davidson diagonalization with overlap
     ethr =  7.11E-08,  avg # of iterations =  1.0

     total cpu time spent up to now is      300.2 secs

     total energy              =    -452.32168778 Ry
     estimated scf accuracy    <       0.00003073 Ry

     iteration # 20     ecut=    60.00 Ry     beta= 0.70
     Davidson diagonalization with overlap
     ethr =  7.11E-08,  avg # of iterations =  2.8

     total cpu time spent up to now is      300.6 secs

     total energy              =    -452.32169010 Ry
     estimated scf accuracy    <       0.00000109 Ry

     iteration # 21     ecut=    60.00 Ry     beta= 0.70
     Davidson diagonalization with overlap
     ethr =  2.74E-09,  avg # of iterations =  5.6

     total cpu time spent up to now is      301.1 secs

     total energy              =    -452.36808087 Ry
     estimated scf accuracy    <       0.02029006 Ry

     iteration # 22     ecut=    60.00 Ry     beta= 0.70
     Davidson diagonalization with overlap
     ethr =  2.74E-09,  avg # of iterations =  3.9

     total cpu time spent up to now is      301.6 secs

     total energy              =    -452.36799848 Ry
     estimated scf accuracy    <       0.01900885 Ry

     iteration # 23     ecut=    60.00 Ry     beta= 0.70
     Davidson diagonalization with overlap
     ethr =  2.74E-09,  avg # of iterations =  3.7

     total cpu time spent up to now is      302.0 secs

     total energy              =    -452.36827938 Ry
     estimated scf accuracy    <       0.01832211 Ry

     iteration # 24     ecut=    60.00 Ry     beta= 0.70
     Davidson diagonalization with overlap
     ethr =  2.74E-09,  avg # of iterations =  4.2

     total cpu time spent up to now is      302.6 secs

     total energy              =    -452.36861904 Ry
     estimated scf accuracy    <       0.02067623 Ry

     iteration # 25     ecut=    60.00 Ry     beta= 0.70
     Davidson diagonalization with overlap
     ethr =  2.74E-09,  avg # of iterations =  4.2

     total cpu time spent up to now is      303.1 secs

     total energy              =    -452.36824401 Ry
     estimated scf accuracy    <       0.02346826 Ry

     iteration # 26     ecut=    60.00 Ry     beta= 0.70
     Davidson diagonalization with overlap
     ethr =  2.74E-09,  avg # of iterations =  4.2

     total cpu time spent up to now is      303.6 secs

     total energy              =    -452.36810138 Ry
     estimated scf accuracy    <       0.02041171 Ry

     iteration # 27     ecut=    60.00 Ry     beta= 0.70
     Davidson diagonalization with overlap
     ethr =  2.74E-09,  avg # of iterations =  3.9

     total cpu time spent up to now is      304.1 secs

     total energy              =    -452.36819750 Ry
     estimated scf accuracy    <       0.01916385 Ry

     iteration # 28     ecut=    60.00 Ry     beta= 0.70
     Davidson diagonalization with overlap
     ethr =  2.74E-09,  avg # of iterations =  3.8

     total cpu time spent up to now is      304.6 secs

     total energy              =    -452.36806842 Ry
     estimated scf accuracy    <       0.01994386 Ry

     iteration # 29     ecut=    60.00 Ry     beta= 0.70
     Davidson diagonalization with overlap
     ethr =  2.74E-09,  avg # of iterations =  3.9

     total cpu time spent up to now is      305.1 secs

     total energy              =    -452.36379592 Ry
     estimated scf accuracy    <       0.01889126 Ry

     iteration # 30     ecut=    60.00 Ry     beta= 0.70
     Davidson diagonalization with overlap
     ethr =  2.74E-09,  avg # of iterations =  6.1

     total cpu time spent up to now is      305.7 secs

     total energy              =    -452.36584418 Ry
     estimated scf accuracy    <       0.00003765 Ry

     iteration # 31     ecut=    60.00 Ry     beta= 0.70
     Davidson diagonalization with overlap
     ethr =  2.74E-09,  avg # of iterations =  3.8

     total cpu time spent up to now is      306.2 secs

     total energy              =    -452.36584506 Ry
     estimated scf accuracy    <       0.00001067 Ry

     iteration # 32     ecut=    60.00 Ry     beta= 0.70
     Davidson diagonalization with overlap
     ethr =  2.74E-09,  avg # of iterations =  1.0

     total cpu time spent up to now is      306.5 secs

     total energy              =    -452.36584522 Ry
     estimated scf accuracy    <       0.00001104 Ry

     iteration # 33     ecut=    60.00 Ry     beta= 0.70
     Davidson diagonalization with overlap
     ethr =  2.74E-09,  avg # of iterations =  1.0

     total cpu time spent up to now is      306.9 secs

     total energy              =    -452.36584529 Ry
     estimated scf accuracy    <       0.00001186 Ry

     iteration # 34     ecut=    60.00 Ry     beta= 0.70
     Davidson diagonalization with overlap
     ethr =  2.74E-09,  avg # of iterations =  1.0

     total cpu time spent up to now is      307.3 secs

     total energy              =    -452.36584554 Ry
     estimated scf accuracy    <       0.00001236 Ry

     iteration # 35     ecut=    60.00 Ry     beta= 0.70
     Davidson diagonalization with overlap
     ethr =  2.74E-09,  avg # of iterations =  1.0

     total cpu time spent up to now is      307.6 secs

     total energy              =    -452.36584454 Ry
     estimated scf accuracy    <       0.00001403 Ry

     iteration # 36     ecut=    60.00 Ry     beta= 0.70
     Davidson diagonalization with overlap
     ethr =  2.74E-09,  avg # of iterations =  2.9

     total cpu time spent up to now is      308.0 secs

     total energy              =    -452.36584271 Ry
     estimated scf accuracy    <       0.00000783 Ry

     iteration # 37     ecut=    60.00 Ry     beta= 0.70
     Davidson diagonalization with overlap
     ethr =  2.74E-09,  avg # of iterations =  3.8

     total cpu time spent up to now is      308.5 secs

     total energy              =    -452.36584376 Ry
     estimated scf accuracy    <       0.00000027 Ry

     iteration # 38     ecut=    60.00 Ry     beta= 0.70
     Davidson diagonalization with overlap
     ethr =  6.82E-10,  avg # of iterations =  1.0

     total cpu time spent up to now is      308.9 secs

     total energy              =    -452.36584377 Ry
     estimated scf accuracy    <       0.00000014 Ry

     iteration # 39     ecut=    60.00 Ry     beta= 0.70
     Davidson diagonalization with overlap
     ethr =  3.61E-10,  avg # of iterations =  1.0

     total cpu time spent up to now is      309.2 secs

     total energy              =    -452.36584377 Ry
     estimated scf accuracy    <       0.00000016 Ry

     iteration # 40     ecut=    60.00 Ry     beta= 0.70
     Davidson diagonalization with overlap
     ethr =  3.61E-10,  avg # of iterations =  1.0

     total cpu time spent up to now is      309.6 secs

     total energy              =    -452.36584378 Ry
     estimated scf accuracy    <       0.00000011 Ry

     iteration # 41     ecut=    60.00 Ry     beta= 0.70
     Davidson diagonalization with overlap
     ethr =  2.68E-10,  avg # of iterations =  1.0

     total cpu time spent up to now is      309.9 secs

     total energy              =    -452.36584379 Ry
     estimated scf accuracy    <       0.00000015 Ry

     iteration # 42     ecut=    60.00 Ry     beta= 0.70
     Davidson diagonalization with overlap
     ethr =  2.68E-10,  avg # of iterations =  1.0

     total cpu time spent up to now is      310.3 secs

     total energy              =    -452.36584380 Ry
     estimated scf accuracy    <       0.00000016 Ry

     iteration # 43     ecut=    60.00 Ry     beta= 0.70
     Davidson diagonalization with overlap
     ethr =  2.68E-10,  avg # of iterations =  1.2

     total cpu time spent up to now is      310.6 secs

     total energy              =    -452.36584379 Ry
     estimated scf accuracy    <       0.00000014 Ry

     iteration # 44     ecut=    60.00 Ry     beta= 0.70
     Davidson diagonalization with overlap
     ethr =  2.68E-10,  avg # of iterations =  1.0

     total cpu time spent up to now is      311.0 secs

     total energy              =    -452.36584377 Ry
     estimated scf accuracy    <       0.00000011 Ry

     iteration # 45     ecut=    60.00 Ry     beta= 0.70
     Davidson diagonalization with overlap
     ethr =  2.68E-10,  avg # of iterations =  1.8

     total cpu time spent up to now is      311.4 secs

     total energy              =    -452.36584377 Ry
     estimated scf accuracy    <       0.00000004 Ry

     iteration # 46     ecut=    60.00 Ry     beta= 0.70
     Davidson diagonalization with overlap
     ethr =  9.37E-11,  avg # of iterations =  2.4

     total cpu time spent up to now is      311.8 secs

     total energy              =    -452.36584377 Ry
     estimated scf accuracy    <       0.00000002 Ry

     iteration # 47     ecut=    60.00 Ry     beta= 0.70
     Davidson diagonalization with overlap
     ethr =  4.18E-11,  avg # of iterations =  3.0

     total cpu time spent up to now is      312.2 secs

     total energy              =    -452.36584377 Ry
     estimated scf accuracy    <          2.9E-09 Ry

     iteration # 48     ecut=    60.00 Ry     beta= 0.70
     Davidson diagonalization with overlap
     ethr =  7.31E-12,  avg # of iterations =  3.2

     total cpu time spent up to now is      312.6 secs

     total energy              =    -452.36584377 Ry
     estimated scf accuracy    <          8.4E-09 Ry

     iteration # 49     ecut=    60.00 Ry     beta= 0.70
     Davidson diagonalization with overlap
     ethr =  7.31E-12,  avg # of iterations =  1.0

     total cpu time spent up to now is      313.0 secs

     total energy              =    -452.36584377 Ry
     estimated scf accuracy    <          9.6E-09 Ry

     iteration # 50     ecut=    60.00 Ry     beta= 0.70
     Davidson diagonalization with overlap
     ethr =  7.31E-12,  avg # of iterations =  3.0

     total cpu time spent up to now is      313.4 secs

     total energy              =    -452.36584377 Ry
     estimated scf accuracy    <          3.6E-10 Ry

     iteration # 51     ecut=    60.00 Ry     beta= 0.70
     Davidson diagonalization with overlap
     ethr =  9.00E-13,  avg # of iterations =  3.8

     total cpu time spent up to now is      313.9 secs

     total energy              =    -452.36584377 Ry
     estimated scf accuracy    <          1.0E-09 Ry

     iteration # 52     ecut=    60.00 Ry     beta= 0.70
     Davidson diagonalization with overlap
     ethr =  9.00E-13,  avg # of iterations =  3.0

     total cpu time spent up to now is      314.3 secs

     total energy              =    -452.36584377 Ry
     estimated scf accuracy    <          2.3E-10 Ry

     iteration # 53     ecut=    60.00 Ry     beta= 0.70
     Davidson diagonalization with overlap
     ethr =  5.64E-13,  avg # of iterations =  1.3

     total cpu time spent up to now is      314.7 secs

     total energy              =    -452.36584377 Ry
     estimated scf accuracy    <          9.0E-11 Ry

     iteration # 54     ecut=    60.00 Ry     beta= 0.70
     Davidson diagonalization with overlap
     ethr =  2.24E-13,  avg # of iterations =  3.0

     total cpu time spent up to now is      315.1 secs

     total energy              =    -452.36584377 Ry
     estimated scf accuracy    <          2.7E-11 Ry

     iteration # 55     ecut=    60.00 Ry     beta= 0.70
     Davidson diagonalization with overlap
     ethr =  1.00E-13,  avg # of iterations =  1.0

     total cpu time spent up to now is      315.5 secs

     total energy              =    -452.36584377 Ry
     estimated scf accuracy    <          1.3E-11 Ry

     iteration # 56     ecut=    60.00 Ry     beta= 0.70
     Davidson diagonalization with overlap
     ethr =  1.00E-13,  avg # of iterations =  1.0

     total cpu time spent up to now is      315.8 secs

     total energy              =    -452.36584377 Ry
     estimated scf accuracy    <          1.9E-11 Ry

     iteration # 57     ecut=    60.00 Ry     beta= 0.70
     Davidson diagonalization with overlap
     ethr =  1.00E-13,  avg # of iterations =  1.0

     total cpu time spent up to now is      316.2 secs

     total energy              =    -452.36584377 Ry
     estimated scf accuracy    <          1.7E-11 Ry

     iteration # 58     ecut=    60.00 Ry     beta= 0.70
     Davidson diagonalization with overlap
     ethr =  1.00E-13,  avg # of iterations =  1.6

     total cpu time spent up to now is      316.6 secs

     total energy              =    -452.36584377 Ry
     estimated scf accuracy    <          1.1E-12 Ry

     iteration # 59     ecut=    60.00 Ry     beta= 0.70
     Davidson diagonalization with overlap
     ethr =  1.00E-13,  avg # of iterations =  1.0

     total cpu time spent up to now is      316.9 secs

     End of self-consistent calculation

          k = 0.0000 0.0000 0.0000 (  2945 PWs)   bands (ev):

   -56.9431 -30.7007 -30.7007 -30.7007 -18.6105  -9.3530  -8.2641  -8.2641
    -2.1866  -2.1866  -2.1866   5.2146   5.2146   5.2146   7.3245   7.3245
     7.3245   7.9189   7.9189   7.9189

          k = 0.0000 0.0000 0.2067 (  2978 PWs)   bands (ev):

   -56.9428 -30.7112 -30.7002 -30.7002 -18.5950  -9.2800  -8.2532  -8.2301
    -2.1583  -2.1583  -2.0960   4.5007   5.2184   5.2184   6.6295   6.6295
     7.0174   7.1317   7.6940   7.6940

          k = 0.0000 0.0000 0.4134 (  2954 PWs)   bands (ev):

   -56.9424 -30.7280 -30.6995 -30.6995 -18.5699  -9.2183  -8.2354  -8.0934
    -2.1115  -2.1115  -1.9499   3.4030   5.2831   5.2831   5.8826   5.8826
     6.2621   6.8444   7.5776   7.5776

          k = 0.0000 0.2067 0.2067 (  2979 PWs)   bands (ev):

   -56.9425 -30.7107 -30.7106 -30.6997 -18.5813  -9.1722  -8.2315  -8.2208
    -2.1720  -2.1285  -2.0378   4.4181   4.5701   5.2249   5.7052   6.3528
     6.9711   7.0873   7.1972   7.6006

          k = 0.0000 0.2067 0.4134 (  2979 PWs)   bands (ev):

   -56.9421 -30.7275 -30.7099 -30.6990 -18.5590  -9.0480  -8.2067  -8.1215
    -2.1333  -2.0791  -2.0055   3.3926   4.5289   4.8476   5.2973   5.7663
     6.6852   6.8324   7.1059   7.6203

          k = 0.0000 0.4134 0.4134 (  2968 PWs)   bands (ev):

   -56.9416 -30.7266 -30.7266 -30.6983 -18.5412  -8.7619  -8.1709  -8.1467
    -2.1486  -2.1016  -2.0255   3.3116   3.4678   3.9929   5.3585   5.5354
     6.2339   6.8822   6.9883   8.2672

          k = 0.2067 0.2067 0.2067 (  2974 PWs)   bands (ev):

   -56.9423 -30.7103 -30.7101 -30.7101 -18.5689  -9.0399  -8.2096  -8.2096
    -2.1999  -2.1999  -1.9566   4.3225   4.5847   4.5847   5.7165   5.7165
     5.8382   7.4653   7.4653   7.6895

          k = 0.2067 0.2067 0.4134 (  2976 PWs)   bands (ev):

   -56.9418 -30.7270 -30.7094 -30.7093 -18.5487  -8.8694  -8.1736  -8.1264
    -2.2471  -2.1499  -1.9944   3.3909   4.4607   4.6298   4.8473   5.1449
     5.8321   7.4201   7.4606   7.7427

          k = 0.2067 0.4134 0.4134 (  2985 PWs)   bands (ev):

   -56.9414 -30.7261 -30.7261 -30.7086 -18.5320  -8.5665  -8.1309  -8.1157
    -2.2900  -2.2691  -2.1078   3.3289   3.4735   4.2038   4.7298   5.0842
     5.1826   7.5614   7.6212   8.2777

          k = 0.4134 0.4134 0.4134 (  3004 PWs)   bands (ev):

   -56.9409 -30.7253 -30.7252 -30.7252 -18.5170  -8.2248  -8.0636  -8.0636
    -2.4637  -2.4637  -2.3513   3.2956   3.4832   3.4832   4.4968   4.6691
     4.6691   8.2274   8.2274   8.3395

     highest occupied level (ev):     8.3395

!    total energy              =    -452.36584377 Ry
     total all-electron energy =      -452.365844 Ry
     estimated scf accuracy    <          5.7E-13 Ry

     The total energy is the sum of the following terms:
     one-electron contribution =    -101.45752755 Ry
     hartree contribution      =      70.81523972 Ry
     xc contribution           =     -46.63353827 Ry
     ewald contribution        =    -215.82029949 Ry
     one-center paw contrib.   =    -159.26971817 Ry

     convergence has been achieved in  59 iterations

     Forces acting on atoms (cartesian axes, Ry/au):

     atom    1 type  2   force =     0.00000000    0.00000000    0.00000000
     atom    2 type  1   force =     0.00000000    0.00000000    0.00000000
     atom    3 type  3   force =     0.00000000    0.00000000    0.00000000
     atom    4 type  3   force =     0.00000000    0.00000000    0.00000000
     atom    5 type  3   force =     0.00000000    0.00000000    0.00000000

     Total force =     0.000000     Total SCF correction =     0.000000


     Computing stress (Cartesian axis) and pressure

          total   stress  (Ry/bohr**3)                   (kbar)     P=       -1.33
  -0.00000906   0.00000000   0.00000000           -1.33        0.00        0.00
   0.00000000  -0.00000906   0.00000000            0.00       -1.33        0.00
   0.00000000   0.00000000  -0.00000906            0.00        0.00       -1.33


     Writing all to output data dir ./KVO3.save/

     init_run     :      4.20s CPU      4.30s WALL (       2 calls)
     electrons    :    252.05s CPU    261.66s WALL (      12 calls)
     update_pot   :     17.42s CPU     17.52s WALL (      10 calls)
     forces       :     10.15s CPU     10.19s WALL (      12 calls)
     stress       :     22.67s CPU     22.74s WALL (      12 calls)

     Called by init_run:
     wfcinit      :      0.26s CPU      0.28s WALL (       2 calls)
     potinit      :      1.61s CPU      1.65s WALL (       2 calls)
     hinit0       :      2.23s CPU      2.26s WALL (       2 calls)

     Called by electrons:
     c_bands      :    111.35s CPU    116.23s WALL (     572 calls)
     sum_band     :     22.38s CPU     23.29s WALL (     572 calls)
     v_of_rho     :      4.09s CPU      4.41s WALL (     584 calls)
     newd         :      8.33s CPU      8.44s WALL (     584 calls)
     PAW_pot      :    108.63s CPU    111.48s WALL (     594 calls)
     mix_rho      :      0.82s CPU      0.88s WALL (     572 calls)

     Called by c_bands:
     init_us_2    :      1.44s CPU      1.50s WALL (   11800 calls)
     init_us_2:cp :      1.41s CPU      1.47s WALL (   11800 calls)
     cegterg      :    107.46s CPU    112.22s WALL (    5720 calls)

     Called by *egterg:
     cdiaghg      :     36.98s CPU     38.43s WALL (   22857 calls)
     h_psi        :     57.95s CPU     60.71s WALL (   22977 calls)
     s_psi        :      2.35s CPU      2.47s WALL (   22977 calls)
     g_psi        :      0.46s CPU      0.48s WALL (   17237 calls)

     Called by h_psi:
     h_psi:calbec :      4.04s CPU      4.25s WALL (   22977 calls)
     vloc_psi     :     51.12s CPU     53.55s WALL (   22977 calls)
     add_vuspsi   :      2.44s CPU      2.56s WALL (   22977 calls)

     General routines
     calbec       :      5.52s CPU      5.81s WALL (   29397 calls)
     fft          :      2.90s CPU      3.22s WALL (    7878 calls)
     ffts         :      0.66s CPU      0.68s WALL (    1156 calls)
     fftw         :     52.62s CPU     55.19s WALL (  756884 calls)
     interpolate  :      0.83s CPU      0.86s WALL (     584 calls)

     Parallel routines

     PWSCF        :   5m 9.26s CPU   5m19.61s WALL


   This run was terminated on:   2:58:35   2Dec2025            

=------------------------------------------------------------------------------=
   JOB DONE.
=------------------------------------------------------------------------------=
