
     Program PWSCF v.7.1 starts on  1Dec2025 at  2:26:19 

     This program is part of the open-source Quantum ESPRESSO suite
     for quantum simulation of materials; please cite
         "P. Giannozzi et al., J. Phys.:Condens. Matter 21 395502 (2009);
         "P. Giannozzi et al., J. Phys.:Condens. Matter 29 465901 (2017);
         "P. Giannozzi et al., J. Chem. Phys. 152 154105 (2020);
          URL http://www.quantum-espresso.org", 
     in publications or presentations arising from this work. More details at
     http://www.quantum-espresso.org/quote

     Parallel version (MPI & OpenMP), running on      16 processor cores
     Number of MPI processes:                16
     Threads/MPI process:                     1

     MPI processes distributed on     1 nodes
     96258 MiB available memory on the printing compute node when the environment starts

     Waiting for input...
     Reading input from standard input

     Current dimensions of program PWSCF are:
     Max number of different atomic species (ntypx) = 10
     Max number of k-points (npk) =  40000
     Max angular momentum in pseudopotentials (lmaxx) =  4

     File ./K4ZrSnO6.update deleted, as requested

     File ./K4ZrSnO6.bfgs deleted, as requested
     Message from routine read_pp_mesh:
     mismatch in mesh size, discarding the one in header
     Message from routine read_pp_mesh:
     mismatch in mesh size, discarding the one in header
     Message from routine read_pp_mesh:
     mismatch in mesh size, discarding the one in header
     Message from routine read_pp_mesh:
     mismatch in mesh size, discarding the one in header
     Message from routine read_pp_mesh:
     mismatch in mesh size, discarding the one in header
     Message from routine setup:
     using ibrav=0 with symmetry is DISCOURAGED, use correct ibrav instead

     R & G space division:  proc/nbgrp/npool/nimage =      16
     Subspace diagonalization in iterative solution of the eigenvalue problem:
     a serial algorithm will be used


     Parallelization info
     --------------------
     sticks:   dense  smooth     PW     G-vecs:    dense   smooth      PW
     Min         373     186     51                21659     7657    1093
     Max         374     187     52                21661     7659    1095
     Sum        5969    2977    817               346559   122533   17503

     Using Slab Decomposition



     bravais-lattice index     =            0
     lattice parameter (alat)  =      12.5028  a.u.
     unit-cell volume          =    1952.0208 (a.u.)^3
     number of atoms/cell      =           12
     number of atomic types    =            5
     number of electrons       =        98.00
     number of Kohn-Sham states=           49
     kinetic-energy cutoff     =      60.0000  Ry
     charge density cutoff     =     480.0000  Ry
     scf convergence threshold =      1.0E-10
     mixing beta               =       0.7000
     number of iterations used =            8  plain     mixing
     energy convergence thresh.=      1.0E-04
     force convergence thresh. =      1.0E-05
     press convergence thresh. =      5.0E-01
     Exchange-correlation= SLA PW PBX PBC
                           (   1   4   3   4   0   0   0)
     nstep                     =          250


     celldm(1)=  12.502847  celldm(2)=   0.000000  celldm(3)=   0.000000
     celldm(4)=   0.000000  celldm(5)=   0.000000  celldm(6)=   0.000000

     crystal axes: (cart. coord. in units of alat)
               a(1) = (   0.999942   0.006829  -0.008287 )  
               a(2) = (   0.006605   0.999027   0.006605 )  
               a(3) = (  -0.008287   0.006829   0.999942 )  

     reciprocal axes: (cart. coord. in units 2 pi/alat)
               b(1) = (  1.000172 -0.006667  0.008335 )  
               b(2) = ( -0.006894  1.001065 -0.006894 )  
               b(3) = (  0.008335 -0.006667  1.000172 )  


     PseudoPot. # 1 for Na read from file:
     ./Na.upf
     MD5 check sum: b8e483bdca8edababda73ba53cc0c4c9
     Pseudo is Projector augmented-wave + core cor, Zval =  9.0
     Generated using ATOMPAW code
     Shape of augmentation charge: SINC**2
     Using radial grid of 2342 points,  4 beta functions with: 
                l(1) =   0
                l(2) =   0
                l(3) =   1
                l(4) =   1
     Q(r) pseudized with 0 coefficients 


     PseudoPot. # 2 for K  read from file:
     ./K.upf
     MD5 check sum: 9356cfae17991a8ac93a0af773ad5d28
     Pseudo is Projector augmented-wave + core cor, Zval =  9.0
     Generated using ATOMPAW code
     Shape of augmentation charge: SINC**2
     Using radial grid of 2342 points,  5 beta functions with: 
                l(1) =   0
                l(2) =   0
                l(3) =   1
                l(4) =   1
                l(5) =   2
     Q(r) pseudized with 0 coefficients 


     PseudoPot. # 3 for Zr read from file:
     ./Zr.upf
     MD5 check sum: 10be9e9715c592225794718718b87d8f
     Pseudo is Projector augmented-wave + core cor, Zval = 12.0
     Generated using ATOMPAW code
     Shape of augmentation charge: BESSEL
     Using radial grid of 2342 points,  6 beta functions with: 
                l(1) =   0
                l(2) =   0
                l(3) =   1
                l(4) =   1
                l(5) =   2
                l(6) =   2
     Q(r) pseudized with 0 coefficients 


     PseudoPot. # 4 for Sn read from file:
     ./Sn.upf
     MD5 check sum: f8d5c2bd65c7f969f3af92fc3a9f2821
     Pseudo is Projector augmented-wave + core cor, Zval = 14.0
     Generated using ATOMPAW code
     Shape of augmentation charge: BESSEL
     Using radial grid of 2342 points,  6 beta functions with: 
                l(1) =   0
                l(2) =   0
                l(3) =   1
                l(4) =   1
                l(5) =   2
                l(6) =   2
     Q(r) pseudized with 0 coefficients 


     PseudoPot. # 5 for O  read from file:
     ./O.upf
     MD5 check sum: 45fbb1c0d1f8837f1e386a2947d3aa26
     Pseudo is Projector augmented-wave + core cor, Zval =  6.0
     Generated using ATOMPAW code
     Shape of augmentation charge: SINC**2
     Using radial grid of 2342 points,  4 beta functions with: 
                l(1) =   0
                l(2) =   0
                l(3) =   1
                l(4) =   1
     Q(r) pseudized with 0 coefficients 


     atomic species   valence    mass     pseudopotential
        Na             9.00    22.96000     Na( 1.00)
        K              9.00    39.09800     K ( 1.00)
        Zr            12.00    91.22400     Zr( 1.00)
        Sn            14.00   118.71000     Sn( 1.00)
        O              6.00    15.99900     O ( 1.00)

      2 Sym. Ops. (no inversion) found



   Cartesian axes

     site n.     atom                  positions (alat units)
         1           Na  tau(   1) = (   0.0054235   0.0058551   0.0054235  )
         2           K   tau(   2) = (   0.5047787   0.5050427  -0.0031345  )
         3           Na  tau(   3) = (   0.4940837   0.0109115   0.4940837  )
         4           K   tau(   4) = (  -0.0031345   0.5050427   0.5047787  )
         5           Sn  tau(   5) = (   0.2254149   0.2134427   0.2254149  )
         6           Zr  tau(   6) = (   0.7883061   0.8059578   0.7883061  )
         7           O   tau(   7) = (   0.3378285   0.0182720   0.0133572  )
         8           O   tau(   8) = (   0.6612031  -0.0214499  -0.0326952  )
         9           O   tau(   9) = (   0.0234643   0.3382380   0.0234643  )
        10           O   tau(  10) = (  -0.0232510   0.6599188  -0.0232510  )
        11           O   tau(  11) = (   0.0133572   0.0182720   0.3378285  )
        12           O   tau(  12) = (  -0.0326952  -0.0214499   0.6612031  )

     number of k points=    39
                       cart. coord. in units 2pi/alat
        k(    1) = (   0.0000000   0.0000000   0.0000000), wk =   0.0160000
        k(    2) = (   0.0016669  -0.0013335   0.2000345), wk =   0.0640000
        k(    3) = (   0.0033339  -0.0026669   0.4000689), wk =   0.0640000
        k(    4) = (  -0.0013787   0.2002130  -0.0013787), wk =   0.0320000
        k(    5) = (   0.0002882   0.1988796   0.1986557), wk =   0.0640000
        k(    6) = (   0.0019552   0.1975461   0.3986902), wk =   0.0640000
        k(    7) = (  -0.0047126   0.2028800  -0.4014476), wk =   0.0640000
        k(    8) = (  -0.0030457   0.2015465  -0.2014132), wk =   0.0640000
        k(    9) = (  -0.0027574   0.4004261  -0.0027574), wk =   0.0320000
        k(   10) = (  -0.0010905   0.3990926   0.1972770), wk =   0.0640000
        k(   11) = (   0.0005764   0.3977592   0.3973115), wk =   0.0640000
        k(   12) = (  -0.0060913   0.4030930  -0.4028264), wk =   0.0640000
        k(   13) = (  -0.0044244   0.4017596  -0.2027919), wk =   0.0640000
        k(   14) = (   0.2017014  -0.0026669   0.2017014), wk =   0.0320000
        k(   15) = (   0.2033683  -0.0040004   0.4017358), wk =   0.0640000
        k(   16) = (   0.1967006   0.0013335  -0.3984020), wk =   0.0640000
        k(   17) = (   0.1983675  -0.0000000  -0.1983675), wk =   0.0320000
        k(   18) = (   0.2003227   0.1975461   0.2003227), wk =   0.0320000
        k(   19) = (   0.2019896   0.1962126   0.4003571), wk =   0.0640000
        k(   20) = (   0.1953219   0.2015465  -0.3997807), wk =   0.0640000
        k(   21) = (   0.1969888   0.2002130  -0.1997462), wk =   0.0640000
        k(   22) = (   0.1989440   0.3977592   0.1989440), wk =   0.0320000
        k(   23) = (   0.2006109   0.3964257   0.3989784), wk =   0.0640000
        k(   24) = (   0.1939431   0.4017596  -0.4011594), wk =   0.0640000
        k(   25) = (   0.1956101   0.4004261  -0.2011250), wk =   0.0640000
        k(   26) = (   0.2044588  -0.4030930   0.2044588), wk =   0.0320000
        k(   27) = (   0.2061258  -0.4044265   0.4044933), wk =   0.0640000
        k(   28) = (   0.1994580  -0.3990926  -0.3956445), wk =   0.0640000
        k(   29) = (   0.2030801  -0.2028800   0.2030801), wk =   0.0320000
        k(   30) = (   0.2047471  -0.2042134   0.4031146), wk =   0.0640000
        k(   31) = (   0.1980793  -0.1988796  -0.3970232), wk =   0.0640000
        k(   32) = (   0.4034028  -0.0053339   0.4034028), wk =   0.0320000
        k(   33) = (   0.3967350   0.0000000  -0.3967350), wk =   0.0320000
        k(   34) = (   0.4020241   0.1948792   0.4020241), wk =   0.0320000
        k(   35) = (   0.3953563   0.2002130  -0.3981137), wk =   0.0640000
        k(   36) = (   0.4006453   0.3950922   0.4006453), wk =   0.0320000
        k(   37) = (   0.3939776   0.4004261  -0.3994925), wk =   0.0640000
        k(   38) = (   0.4061602  -0.4057600   0.4061602), wk =   0.0320000
        k(   39) = (   0.4047815  -0.2055469   0.4047815), wk =   0.0320000

     Dense  grid:   346559 G-vectors     FFT dimensions: (  90,  90,  90)

     Smooth grid:   122533 G-vectors     FFT dimensions: (  64,  64,  64)

     Estimated max dynamical RAM per process >     129.88 MB

     Estimated total dynamical RAM >       2.03 GB

     Initial potential from superposition of free atoms

     starting charge      97.9418, renormalised to      98.0000
     Starting wfcs are  126 randomized atomic wfcs
     Checking if some PAW data can be deallocated... 

     total cpu time spent up to now is       23.7 secs

     per-process dynamical memory:   100.0 Mb

     Self-consistent Calculation

     iteration #  1     ecut=    60.00 Ry     beta= 0.70
     Davidson diagonalization with overlap
     ethr =  1.00E-02,  avg # of iterations =  1.0

     total cpu time spent up to now is       29.3 secs

     total energy              =   -1439.34370071 Ry
     estimated scf accuracy    <       6.77220647 Ry

     iteration #  2     ecut=    60.00 Ry     beta= 0.70
     Davidson diagonalization with overlap
     ethr =  6.91E-03,  avg # of iterations =  7.1

     total cpu time spent up to now is       43.2 secs

     total energy              =   -1432.26477926 Ry
     estimated scf accuracy    <      86.69456895 Ry

     iteration #  3     ecut=    60.00 Ry     beta= 0.70
     Davidson diagonalization with overlap
     ethr =  6.91E-03,  avg # of iterations =  7.2

     total cpu time spent up to now is       55.9 secs

     total energy              =   -1443.47280383 Ry
     estimated scf accuracy    <       1.69247954 Ry

     iteration #  4     ecut=    60.00 Ry     beta= 0.70
     Davidson diagonalization with overlap
     ethr =  1.73E-03,  avg # of iterations =  5.5

     total cpu time spent up to now is       64.2 secs

     total energy              =   -1443.60771428 Ry
     estimated scf accuracy    <       0.95208766 Ry

     iteration #  5     ecut=    60.00 Ry     beta= 0.70
     Davidson diagonalization with overlap
     ethr =  9.72E-04,  avg # of iterations =  1.6

     total cpu time spent up to now is       70.2 secs

     total energy              =   -1443.57012798 Ry
     estimated scf accuracy    <       0.64982910 Ry

     iteration #  6     ecut=    60.00 Ry     beta= 0.70
     Davidson diagonalization with overlap
     ethr =  6.63E-04,  avg # of iterations =  1.1

     total cpu time spent up to now is       75.9 secs

     total energy              =   -1443.47280749 Ry
     estimated scf accuracy    <       0.50501761 Ry

     iteration #  7     ecut=    60.00 Ry     beta= 0.70
     Davidson diagonalization with overlap
     ethr =  5.15E-04,  avg # of iterations =  7.0

     total cpu time spent up to now is       85.0 secs

     total energy              =   -1443.49117122 Ry
     estimated scf accuracy    <       1.02883750 Ry

     iteration #  8     ecut=    60.00 Ry     beta= 0.70
     Davidson diagonalization with overlap
     ethr =  5.15E-04,  avg # of iterations =  3.0

     total cpu time spent up to now is       91.6 secs

     total energy              =   -1443.46963047 Ry
     estimated scf accuracy    <       0.48332351 Ry

     iteration #  9     ecut=    60.00 Ry     beta= 0.70
     Davidson diagonalization with overlap
     ethr =  4.93E-04,  avg # of iterations =  2.2

     total cpu time spent up to now is       97.9 secs

     total energy              =   -1443.44420322 Ry
     estimated scf accuracy    <       0.17717517 Ry

     iteration # 10     ecut=    60.00 Ry     beta= 0.70
     Davidson diagonalization with overlap
     ethr =  1.81E-04,  avg # of iterations =  5.9

     total cpu time spent up to now is      107.4 secs

     total energy              =   -1443.51657153 Ry
     estimated scf accuracy    <       0.34578391 Ry

     iteration # 11     ecut=    60.00 Ry     beta= 0.70
     Davidson diagonalization with overlap
     ethr =  1.81E-04,  avg # of iterations =  1.0

     total cpu time spent up to now is      113.1 secs

     total energy              =   -1443.49026445 Ry
     estimated scf accuracy    <       0.28899224 Ry

     iteration # 12     ecut=    60.00 Ry     beta= 0.70
     Davidson diagonalization with overlap
     ethr =  1.81E-04,  avg # of iterations =  4.6

     total cpu time spent up to now is      120.5 secs

     total energy              =   -1443.47862917 Ry
     estimated scf accuracy    <       0.06432744 Ry

     iteration # 13     ecut=    60.00 Ry     beta= 0.70
     Davidson diagonalization with overlap
     ethr =  6.56E-05,  avg # of iterations =  7.0

     total cpu time spent up to now is      131.3 secs

     total energy              =   -1443.50527173 Ry
     estimated scf accuracy    <       0.67953111 Ry

     iteration # 14     ecut=    60.00 Ry     beta= 0.70
     Davidson diagonalization with overlap
     ethr =  6.56E-05,  avg # of iterations =  4.8

     total cpu time spent up to now is      139.0 secs

     total energy              =   -1443.48962027 Ry
     estimated scf accuracy    <       0.32572851 Ry

     iteration # 15     ecut=    60.00 Ry     beta= 0.70
     Davidson diagonalization with overlap
     ethr =  6.56E-05,  avg # of iterations =  7.3

     total cpu time spent up to now is      147.9 secs

     total energy              =   -1443.49323560 Ry
     estimated scf accuracy    <       0.01968679 Ry

     iteration # 16     ecut=    60.00 Ry     beta= 0.70
     Davidson diagonalization with overlap
     ethr =  2.01E-05,  avg # of iterations =  6.6

     total cpu time spent up to now is      158.0 secs

     total energy              =   -1443.49611627 Ry
     estimated scf accuracy    <       0.12289108 Ry

     iteration # 17     ecut=    60.00 Ry     beta= 0.70
     Davidson diagonalization with overlap
     ethr =  2.01E-05,  avg # of iterations =  7.3

     total cpu time spent up to now is      166.8 secs

     total energy              =   -1443.49649240 Ry
     estimated scf accuracy    <       0.02813255 Ry

     iteration # 18     ecut=    60.00 Ry     beta= 0.70
     Davidson diagonalization with overlap
     ethr =  2.01E-05,  avg # of iterations =  1.0

     total cpu time spent up to now is      172.5 secs

     total energy              =   -1443.49538444 Ry
     estimated scf accuracy    <       0.02138684 Ry

     iteration # 19     ecut=    60.00 Ry     beta= 0.70
     Davidson diagonalization with overlap
     ethr =  2.01E-05,  avg # of iterations =  3.6

     total cpu time spent up to now is      179.3 secs

     total energy              =   -1443.49634594 Ry
     estimated scf accuracy    <       0.00350405 Ry

     iteration # 20     ecut=    60.00 Ry     beta= 0.70
     Davidson diagonalization with overlap
     ethr =  3.58E-06,  avg # of iterations =  7.0

     total cpu time spent up to now is      188.8 secs

     total energy              =   -1443.49989962 Ry
     estimated scf accuracy    <       0.06404099 Ry

     iteration # 21     ecut=    60.00 Ry     beta= 0.70
     Davidson diagonalization with overlap
     ethr =  3.58E-06,  avg # of iterations =  1.0

     total cpu time spent up to now is      194.5 secs

     total energy              =   -1443.50130762 Ry
     estimated scf accuracy    <       0.06746275 Ry

     iteration # 22     ecut=    60.00 Ry     beta= 0.70
     Davidson diagonalization with overlap
     ethr =  3.58E-06,  avg # of iterations =  6.2

     total cpu time spent up to now is      202.7 secs

     total energy              =   -1443.50192534 Ry
     estimated scf accuracy    <       0.12550210 Ry

     iteration # 23     ecut=    60.00 Ry     beta= 0.70
     Davidson diagonalization with overlap
     ethr =  3.58E-06,  avg # of iterations =  1.0

     total cpu time spent up to now is      208.3 secs

     total energy              =   -1443.50458702 Ry
     estimated scf accuracy    <       0.12662759 Ry

     iteration # 24     ecut=    60.00 Ry     beta= 0.70
     Davidson diagonalization with overlap
     ethr =  3.58E-06,  avg # of iterations =  5.6

     total cpu time spent up to now is      216.3 secs

     total energy              =   -1443.50943824 Ry
     estimated scf accuracy    <       0.20031910 Ry

     iteration # 25     ecut=    60.00 Ry     beta= 0.70
     Davidson diagonalization with overlap
     ethr =  3.58E-06,  avg # of iterations =  6.2

     total cpu time spent up to now is      225.0 secs

     total energy              =   -1443.51155508 Ry
     estimated scf accuracy    <       0.31234613 Ry

     iteration # 26     ecut=    60.00 Ry     beta= 0.70
     Davidson diagonalization with overlap
     ethr =  3.58E-06,  avg # of iterations =  1.1

     total cpu time spent up to now is      230.7 secs

     total energy              =   -1443.51216566 Ry
     estimated scf accuracy    <       0.31750915 Ry

     iteration # 27     ecut=    60.00 Ry     beta= 0.70
     Davidson diagonalization with overlap
     ethr =  3.58E-06,  avg # of iterations =  1.0

     total cpu time spent up to now is      236.3 secs

     total energy              =   -1443.50756559 Ry
     estimated scf accuracy    <       0.32090831 Ry

     iteration # 28     ecut=    60.00 Ry     beta= 0.70
     Davidson diagonalization with overlap
     ethr =  3.58E-06,  avg # of iterations =  1.1

     total cpu time spent up to now is      242.0 secs

     total energy              =   -1443.46540174 Ry
     estimated scf accuracy    <       0.30563942 Ry

     iteration # 29     ecut=    60.00 Ry     beta= 0.70
     Davidson diagonalization with overlap
     ethr =  3.58E-06,  avg # of iterations =  7.7

     total cpu time spent up to now is      255.1 secs

     total energy              =   -1443.49895594 Ry
     estimated scf accuracy    <       0.22550771 Ry

     iteration # 30     ecut=    60.00 Ry     beta= 0.70
     Davidson diagonalization with overlap
     ethr =  3.58E-06,  avg # of iterations =  5.6

     total cpu time spent up to now is      265.2 secs

     total energy              =   -1443.49539444 Ry
     estimated scf accuracy    <       0.09871319 Ry

     iteration # 31     ecut=    60.00 Ry     beta= 0.70
     Davidson diagonalization with overlap
     ethr =  3.58E-06,  avg # of iterations =  8.4

     total cpu time spent up to now is      275.9 secs

     total energy              =   -1443.49718842 Ry
     estimated scf accuracy    <       0.00923242 Ry

     iteration # 32     ecut=    60.00 Ry     beta= 0.70
     Davidson diagonalization with overlap
     ethr =  3.58E-06,  avg # of iterations =  1.0

     total cpu time spent up to now is      281.5 secs

     total energy              =   -1443.49723333 Ry
     estimated scf accuracy    <       0.00912559 Ry

     iteration # 33     ecut=    60.00 Ry     beta= 0.70
     Davidson diagonalization with overlap
     ethr =  3.58E-06,  avg # of iterations =  1.0

     total cpu time spent up to now is      287.2 secs

     total energy              =   -1443.49713796 Ry
     estimated scf accuracy    <       0.00931439 Ry

     iteration # 34     ecut=    60.00 Ry     beta= 0.70
     Davidson diagonalization with overlap
     ethr =  3.58E-06,  avg # of iterations =  1.0

     total cpu time spent up to now is      292.9 secs

     total energy              =   -1443.49717620 Ry
     estimated scf accuracy    <       0.00898912 Ry

     iteration # 35     ecut=    60.00 Ry     beta= 0.70
     Davidson diagonalization with overlap
     ethr =  3.58E-06,  avg # of iterations =  1.0

     total cpu time spent up to now is      298.5 secs

     total energy              =   -1443.49658925 Ry
     estimated scf accuracy    <       0.00897873 Ry

     iteration # 36     ecut=    60.00 Ry     beta= 0.70
     Davidson diagonalization with overlap
     ethr =  3.58E-06,  avg # of iterations =  5.1

     total cpu time spent up to now is      305.9 secs

     total energy              =   -1443.49681510 Ry
     estimated scf accuracy    <       0.00028863 Ry

     iteration # 37     ecut=    60.00 Ry     beta= 0.70
     Davidson diagonalization with overlap
     ethr =  2.95E-07,  avg # of iterations =  7.6

     total cpu time spent up to now is      315.9 secs

     total energy              =   -1443.49694635 Ry
     estimated scf accuracy    <       0.00021169 Ry

     iteration # 38     ecut=    60.00 Ry     beta= 0.70
     Davidson diagonalization with overlap
     ethr =  2.16E-07,  avg # of iterations =  8.4

     total cpu time spent up to now is      325.2 secs

     total energy              =   -1443.49696522 Ry
     estimated scf accuracy    <       0.00170530 Ry

     iteration # 39     ecut=    60.00 Ry     beta= 0.70
     Davidson diagonalization with overlap
     ethr =  2.16E-07,  avg # of iterations =  7.0

     total cpu time spent up to now is      333.9 secs

     total energy              =   -1443.49682114 Ry
     estimated scf accuracy    <       0.00184231 Ry

     iteration # 40     ecut=    60.00 Ry     beta= 0.70
     Davidson diagonalization with overlap
     ethr =  2.16E-07,  avg # of iterations =  7.5

     total cpu time spent up to now is      343.8 secs

     total energy              =   -1443.49691078 Ry
     estimated scf accuracy    <       0.00190372 Ry

     iteration # 41     ecut=    60.00 Ry     beta= 0.70
     Davidson diagonalization with overlap
     ethr =  2.16E-07,  avg # of iterations =  1.0

     total cpu time spent up to now is      349.4 secs

     total energy              =   -1443.49683540 Ry
     estimated scf accuracy    <       0.00179842 Ry

     iteration # 42     ecut=    60.00 Ry     beta= 0.70
     Davidson diagonalization with overlap
     ethr =  2.16E-07,  avg # of iterations =  7.7

     total cpu time spent up to now is      358.6 secs

     total energy              =   -1443.49689664 Ry
     estimated scf accuracy    <       0.00023684 Ry

     iteration # 43     ecut=    60.00 Ry     beta= 0.70
     Davidson diagonalization with overlap
     ethr =  2.16E-07,  avg # of iterations =  1.0

     total cpu time spent up to now is      364.3 secs

     total energy              =   -1443.49689089 Ry
     estimated scf accuracy    <       0.00024726 Ry

     iteration # 44     ecut=    60.00 Ry     beta= 0.70
     Davidson diagonalization with overlap
     ethr =  2.16E-07,  avg # of iterations =  1.0

     total cpu time spent up to now is      370.0 secs

     total energy              =   -1443.49689240 Ry
     estimated scf accuracy    <       0.00022232 Ry

     iteration # 45     ecut=    60.00 Ry     beta= 0.70
     Davidson diagonalization with overlap
     ethr =  2.16E-07,  avg # of iterations =  1.0

     total cpu time spent up to now is      375.6 secs

     total energy              =   -1443.49688186 Ry
     estimated scf accuracy    <       0.00022379 Ry

     iteration # 46     ecut=    60.00 Ry     beta= 0.70
     Davidson diagonalization with overlap
     ethr =  2.16E-07,  avg # of iterations =  1.0

     total cpu time spent up to now is      381.3 secs

     total energy              =   -1443.49687650 Ry
     estimated scf accuracy    <       0.00016919 Ry

     iteration # 47     ecut=    60.00 Ry     beta= 0.70
     Davidson diagonalization with overlap
     ethr =  1.73E-07,  avg # of iterations =  1.6

     total cpu time spent up to now is      387.2 secs

     total energy              =   -1443.49688757 Ry
     estimated scf accuracy    <       0.00000483 Ry

     iteration # 48     ecut=    60.00 Ry     beta= 0.70
     Davidson diagonalization with overlap
     ethr =  4.92E-09,  avg # of iterations =  9.0

     total cpu time spent up to now is      398.6 secs

     total energy              =   -1443.49694037 Ry
     estimated scf accuracy    <       0.00006145 Ry

     iteration # 49     ecut=    60.00 Ry     beta= 0.70
     Davidson diagonalization with overlap
     ethr =  4.92E-09,  avg # of iterations =  1.0

     total cpu time spent up to now is      404.3 secs

     total energy              =   -1443.49693921 Ry
     estimated scf accuracy    <       0.00005999 Ry

     iteration # 50     ecut=    60.00 Ry     beta= 0.70
     Davidson diagonalization with overlap
     ethr =  4.92E-09,  avg # of iterations =  1.0

     total cpu time spent up to now is      410.0 secs

     total energy              =   -1443.49693637 Ry
     estimated scf accuracy    <       0.00005393 Ry

     iteration # 51     ecut=    60.00 Ry     beta= 0.70
     Davidson diagonalization with overlap
     ethr =  4.92E-09,  avg # of iterations =  8.1

     total cpu time spent up to now is      419.5 secs

     total energy              =   -1443.49693743 Ry
     estimated scf accuracy    <       0.00021885 Ry

     iteration # 52     ecut=    60.00 Ry     beta= 0.70
     Davidson diagonalization with overlap
     ethr =  4.92E-09,  avg # of iterations =  8.9

     total cpu time spent up to now is      428.5 secs

     total energy              =   -1443.49693896 Ry
     estimated scf accuracy    <       0.00014258 Ry

     iteration # 53     ecut=    60.00 Ry     beta= 0.70
     Davidson diagonalization with overlap
     ethr =  4.92E-09,  avg # of iterations =  1.1

     total cpu time spent up to now is      434.2 secs

     total energy              =   -1443.49693861 Ry
     estimated scf accuracy    <       0.00014738 Ry

     iteration # 54     ecut=    60.00 Ry     beta= 0.70
     Davidson diagonalization with overlap
     ethr =  4.92E-09,  avg # of iterations =  1.0

     total cpu time spent up to now is      439.8 secs

     total energy              =   -1443.49694209 Ry
     estimated scf accuracy    <       0.00014636 Ry

     iteration # 55     ecut=    60.00 Ry     beta= 0.70
     Davidson diagonalization with overlap
     ethr =  4.92E-09,  avg # of iterations =  6.8

     total cpu time spent up to now is      448.3 secs

     total energy              =   -1443.49694800 Ry
     estimated scf accuracy    <       0.00029155 Ry

     iteration # 56     ecut=    60.00 Ry     beta= 0.70
     Davidson diagonalization with overlap
     ethr =  4.92E-09,  avg # of iterations =  7.8

     total cpu time spent up to now is      457.3 secs

     total energy              =   -1443.49693587 Ry
     estimated scf accuracy    <       0.00053778 Ry

     iteration # 57     ecut=    60.00 Ry     beta= 0.70
     Davidson diagonalization with overlap
     ethr =  4.92E-09,  avg # of iterations =  7.0

     total cpu time spent up to now is      469.2 secs

     total energy              =   -1443.49693895 Ry
     estimated scf accuracy    <       0.00016169 Ry

     iteration # 58     ecut=    60.00 Ry     beta= 0.70
     Davidson diagonalization with overlap
     ethr =  4.92E-09,  avg # of iterations =  6.1

     total cpu time spent up to now is      479.6 secs

     total energy              =   -1443.49691546 Ry
     estimated scf accuracy    <       0.00040942 Ry

     iteration # 59     ecut=    60.00 Ry     beta= 0.70
     Davidson diagonalization with overlap
     ethr =  4.92E-09,  avg # of iterations =  8.4

     total cpu time spent up to now is      491.7 secs

     total energy              =   -1443.49694037 Ry
     estimated scf accuracy    <       0.00078908 Ry

     iteration # 60     ecut=    60.00 Ry     beta= 0.70
     Davidson diagonalization with overlap
     ethr =  4.92E-09,  avg # of iterations =  9.8

     total cpu time spent up to now is      501.7 secs

     total energy              =   -1443.49693740 Ry
     estimated scf accuracy    <       0.00026580 Ry

     iteration # 61     ecut=    60.00 Ry     beta= 0.70
     Davidson diagonalization with overlap
     ethr =  4.92E-09,  avg # of iterations =  7.9

     total cpu time spent up to now is      510.9 secs

     total energy              =   -1443.49693846 Ry
     estimated scf accuracy    <       0.00005601 Ry

     iteration # 62     ecut=    60.00 Ry     beta= 0.70
     Davidson diagonalization with overlap
     ethr =  4.92E-09,  avg # of iterations =  3.4

     total cpu time spent up to now is      517.5 secs

     total energy              =   -1443.49693776 Ry
     estimated scf accuracy    <       0.00005315 Ry

     iteration # 63     ecut=    60.00 Ry     beta= 0.70
     Davidson diagonalization with overlap
     ethr =  4.92E-09,  avg # of iterations =  1.1

     total cpu time spent up to now is      523.3 secs

     total energy              =   -1443.49693646 Ry
     estimated scf accuracy    <       0.00005097 Ry

     iteration # 64     ecut=    60.00 Ry     beta= 0.70
     Davidson diagonalization with overlap
     ethr =  4.92E-09,  avg # of iterations =  7.2

     total cpu time spent up to now is      531.9 secs

     total energy              =   -1443.49693734 Ry
     estimated scf accuracy    <       0.00000165 Ry

     iteration # 65     ecut=    60.00 Ry     beta= 0.70
     Davidson diagonalization with overlap
     ethr =  1.68E-09,  avg # of iterations =  2.2

     total cpu time spent up to now is      538.1 secs

     total energy              =   -1443.49693735 Ry
     estimated scf accuracy    <       0.00000143 Ry

     iteration # 66     ecut=    60.00 Ry     beta= 0.70
     Davidson diagonalization with overlap
     ethr =  1.46E-09,  avg # of iterations =  1.0

     total cpu time spent up to now is      543.8 secs

     total energy              =   -1443.49693730 Ry
     estimated scf accuracy    <       0.00000138 Ry

     iteration # 67     ecut=    60.00 Ry     beta= 0.70
     Davidson diagonalization with overlap
     ethr =  1.40E-09,  avg # of iterations =  4.4

     total cpu time spent up to now is      550.9 secs

     total energy              =   -1443.49693734 Ry
     estimated scf accuracy    <       0.00000158 Ry

     iteration # 68     ecut=    60.00 Ry     beta= 0.70
     Davidson diagonalization with overlap
     ethr =  1.40E-09,  avg # of iterations =  1.0

     total cpu time spent up to now is      556.5 secs

     total energy              =   -1443.49693737 Ry
     estimated scf accuracy    <       0.00000149 Ry

     iteration # 69     ecut=    60.00 Ry     beta= 0.70
     Davidson diagonalization with overlap
     ethr =  1.40E-09,  avg # of iterations =  1.0

     total cpu time spent up to now is      562.2 secs

     total energy              =   -1443.49693737 Ry
     estimated scf accuracy    <       0.00000154 Ry

     iteration # 70     ecut=    60.00 Ry     beta= 0.70
     Davidson diagonalization with overlap
     ethr =  1.40E-09,  avg # of iterations =  1.0

     total cpu time spent up to now is      567.8 secs

     total energy              =   -1443.49693736 Ry
     estimated scf accuracy    <       0.00000153 Ry

     iteration # 71     ecut=    60.00 Ry     beta= 0.70
     Davidson diagonalization with overlap
     ethr =  1.40E-09,  avg # of iterations =  1.0

     total cpu time spent up to now is      573.5 secs

     total energy              =   -1443.49693736 Ry
     estimated scf accuracy    <       0.00000150 Ry

     iteration # 72     ecut=    60.00 Ry     beta= 0.70
     Davidson diagonalization with overlap
     ethr =  1.40E-09,  avg # of iterations =  1.0

     total cpu time spent up to now is      579.2 secs

     total energy              =   -1443.49693694 Ry
     estimated scf accuracy    <       0.00000148 Ry

     iteration # 73     ecut=    60.00 Ry     beta= 0.70
     Davidson diagonalization with overlap
     ethr =  1.40E-09,  avg # of iterations =  7.1

     total cpu time spent up to now is      590.6 secs

     total energy              =   -1443.49693310 Ry
     estimated scf accuracy    <       0.00037009 Ry

     iteration # 74     ecut=    60.00 Ry     beta= 0.70
     Davidson diagonalization with overlap
     ethr =  1.40E-09,  avg # of iterations =  7.3

     total cpu time spent up to now is      602.3 secs

     total energy              =   -1443.49693732 Ry
     estimated scf accuracy    <       0.00000031 Ry

     iteration # 75     ecut=    60.00 Ry     beta= 0.70
     Davidson diagonalization with overlap
     ethr =  3.20E-10,  avg # of iterations =  1.9

     total cpu time spent up to now is      608.3 secs

     total energy              =   -1443.49693732 Ry
     estimated scf accuracy    <       0.00000028 Ry

     iteration # 76     ecut=    60.00 Ry     beta= 0.70
     Davidson diagonalization with overlap
     ethr =  2.84E-10,  avg # of iterations =  1.0

     total cpu time spent up to now is      613.9 secs

     total energy              =   -1443.49693732 Ry
     estimated scf accuracy    <       0.00000028 Ry

     iteration # 77     ecut=    60.00 Ry     beta= 0.70
     Davidson diagonalization with overlap
     ethr =  2.84E-10,  avg # of iterations =  1.0

     total cpu time spent up to now is      619.6 secs

     total energy              =   -1443.49693732 Ry
     estimated scf accuracy    <       0.00000027 Ry

     iteration # 78     ecut=    60.00 Ry     beta= 0.70
     Davidson diagonalization with overlap
     ethr =  2.75E-10,  avg # of iterations =  1.0

     total cpu time spent up to now is      625.3 secs

     total energy              =   -1443.49693731 Ry
     estimated scf accuracy    <       0.00000025 Ry

     iteration # 79     ecut=    60.00 Ry     beta= 0.70
     Davidson diagonalization with overlap
     ethr =  2.52E-10,  avg # of iterations =  1.0

     total cpu time spent up to now is      630.9 secs

     total energy              =   -1443.49693731 Ry
     estimated scf accuracy    <       0.00000023 Ry

     iteration # 80     ecut=    60.00 Ry     beta= 0.70
     Davidson diagonalization with overlap
     ethr =  2.33E-10,  avg # of iterations =  1.0

     total cpu time spent up to now is      636.6 secs

     total energy              =   -1443.49693731 Ry
     estimated scf accuracy    <       0.00000021 Ry

     iteration # 81     ecut=    60.00 Ry     beta= 0.70
     Davidson diagonalization with overlap
     ethr =  2.15E-10,  avg # of iterations =  1.0

     total cpu time spent up to now is      642.2 secs

     total energy              =   -1443.49693731 Ry
     estimated scf accuracy    <       0.00000021 Ry

     iteration # 82     ecut=    60.00 Ry     beta= 0.70
     Davidson diagonalization with overlap
     ethr =  2.11E-10,  avg # of iterations =  1.3

     total cpu time spent up to now is      648.0 secs

     total energy              =   -1443.49693726 Ry
     estimated scf accuracy    <       0.00000016 Ry

     iteration # 83     ecut=    60.00 Ry     beta= 0.70
     Davidson diagonalization with overlap
     ethr =  1.63E-10,  avg # of iterations =  7.5

     total cpu time spent up to now is      659.3 secs

     total energy              =   -1443.49693578 Ry
     estimated scf accuracy    <       0.00018286 Ry

     iteration # 84     ecut=    60.00 Ry     beta= 0.70
     Davidson diagonalization with overlap
     ethr =  1.63E-10,  avg # of iterations =  7.6

     total cpu time spent up to now is      670.7 secs

     total energy              =   -1443.49693732 Ry
     estimated scf accuracy    <       0.00000007 Ry

     iteration # 85     ecut=    60.00 Ry     beta= 0.70
     Davidson diagonalization with overlap
     ethr =  7.08E-11,  avg # of iterations =  1.0

     total cpu time spent up to now is      676.3 secs

     total energy              =   -1443.49693732 Ry
     estimated scf accuracy    <       0.00000007 Ry

     iteration # 86     ecut=    60.00 Ry     beta= 0.70
     Davidson diagonalization with overlap
     ethr =  7.08E-11,  avg # of iterations =  1.0

     total cpu time spent up to now is      682.0 secs

     total energy              =   -1443.49693733 Ry
     estimated scf accuracy    <       0.00000008 Ry

     iteration # 87     ecut=    60.00 Ry     beta= 0.70
     Davidson diagonalization with overlap
     ethr =  7.08E-11,  avg # of iterations =  1.0

     total cpu time spent up to now is      687.7 secs

     total energy              =   -1443.49693732 Ry
     estimated scf accuracy    <       0.00000009 Ry

     iteration # 88     ecut=    60.00 Ry     beta= 0.70
     Davidson diagonalization with overlap
     ethr =  7.08E-11,  avg # of iterations =  1.0

     total cpu time spent up to now is      693.3 secs

     total energy              =   -1443.49693732 Ry
     estimated scf accuracy    <       0.00000009 Ry

     iteration # 89     ecut=    60.00 Ry     beta= 0.70
     Davidson diagonalization with overlap
     ethr =  7.08E-11,  avg # of iterations =  1.0

     total cpu time spent up to now is      699.0 secs

     total energy              =   -1443.49693732 Ry
     estimated scf accuracy    <       0.00000009 Ry

     iteration # 90     ecut=    60.00 Ry     beta= 0.70
     Davidson diagonalization with overlap
     ethr =  7.08E-11,  avg # of iterations =  1.0

     total cpu time spent up to now is      704.7 secs

     total energy              =   -1443.49693732 Ry
     estimated scf accuracy    <       0.00000007 Ry

     iteration # 91     ecut=    60.00 Ry     beta= 0.70
     Davidson diagonalization with overlap
     ethr =  7.08E-11,  avg # of iterations =  4.7

     total cpu time spent up to now is      711.9 secs

     total energy              =   -1443.49693732 Ry
     estimated scf accuracy    <       0.00000001 Ry

     iteration # 92     ecut=    60.00 Ry     beta= 0.70
     Davidson diagonalization with overlap
     ethr =  1.33E-11,  avg # of iterations =  7.0

     total cpu time spent up to now is      722.5 secs

     total energy              =   -1443.49693729 Ry
     estimated scf accuracy    <       0.00000050 Ry

     iteration # 93     ecut=    60.00 Ry     beta= 0.70
     Davidson diagonalization with overlap
     ethr =  1.33E-11,  avg # of iterations =  7.8

     total cpu time spent up to now is      733.9 secs

     total energy              =   -1443.49693732 Ry
     estimated scf accuracy    <       0.00000021 Ry

     iteration # 94     ecut=    60.00 Ry     beta= 0.70
     Davidson diagonalization with overlap
     ethr =  1.33E-11,  avg # of iterations =  8.4

     total cpu time spent up to now is      743.6 secs

     total energy              =   -1443.49693732 Ry
     estimated scf accuracy    <          2.1E-09 Ry

     iteration # 95     ecut=    60.00 Ry     beta= 0.70
     Davidson diagonalization with overlap
     ethr =  2.17E-12,  avg # of iterations =  5.3

     total cpu time spent up to now is      751.3 secs

     total energy              =   -1443.49693732 Ry
     estimated scf accuracy    <          2.1E-09 Ry

     iteration # 96     ecut=    60.00 Ry     beta= 0.70
     Davidson diagonalization with overlap
     ethr =  2.16E-12,  avg # of iterations =  8.4

     total cpu time spent up to now is      760.9 secs

     total energy              =   -1443.49693732 Ry
     estimated scf accuracy    <       0.00000001 Ry

     iteration # 97     ecut=    60.00 Ry     beta= 0.70
     Davidson diagonalization with overlap
     ethr =  2.16E-12,  avg # of iterations =  1.0

     total cpu time spent up to now is      766.6 secs

     total energy              =   -1443.49693732 Ry
     estimated scf accuracy    <       0.00000001 Ry

     iteration # 98     ecut=    60.00 Ry     beta= 0.70
     Davidson diagonalization with overlap
     ethr =  2.16E-12,  avg # of iterations =  7.6

     total cpu time spent up to now is      775.7 secs

     total energy              =   -1443.49693732 Ry
     estimated scf accuracy    <          7.1E-09 Ry

     iteration # 99     ecut=    60.00 Ry     beta= 0.70
     Davidson diagonalization with overlap
     ethr =  2.16E-12,  avg # of iterations =  1.0

     total cpu time spent up to now is      781.4 secs

     total energy              =   -1443.49693732 Ry
     estimated scf accuracy    <          6.7E-09 Ry

     iteration #100     ecut=    60.00 Ry     beta= 0.70
     Davidson diagonalization with overlap
     ethr =  2.16E-12,  avg # of iterations =  1.0

     total cpu time spent up to now is      787.0 secs

     total energy              =   -1443.49693732 Ry
     estimated scf accuracy    <          6.0E-09 Ry

     iteration #101     ecut=    60.00 Ry     beta= 0.70
     Davidson diagonalization with overlap
     ethr =  2.16E-12,  avg # of iterations =  1.4

     total cpu time spent up to now is      792.8 secs

     total energy              =   -1443.49693732 Ry
     estimated scf accuracy    <          4.9E-09 Ry

     iteration #102     ecut=    60.00 Ry     beta= 0.70
     Davidson diagonalization with overlap
     ethr =  2.16E-12,  avg # of iterations =  7.4

     total cpu time spent up to now is      801.7 secs

     total energy              =   -1443.49693732 Ry
     estimated scf accuracy    <       0.00000001 Ry

     iteration #103     ecut=    60.00 Ry     beta= 0.70
     Davidson diagonalization with overlap
     ethr =  2.16E-12,  avg # of iterations =  1.0

     total cpu time spent up to now is      807.4 secs

     total energy              =   -1443.49693732 Ry
     estimated scf accuracy    <       0.00000001 Ry

     iteration #104     ecut=    60.00 Ry     beta= 0.70
     Davidson diagonalization with overlap
     ethr =  2.16E-12,  avg # of iterations =  1.0

     total cpu time spent up to now is      813.0 secs

     total energy              =   -1443.49693732 Ry
     estimated scf accuracy    <       0.00000001 Ry

     iteration #105     ecut=    60.00 Ry     beta= 0.70
     Davidson diagonalization with overlap
     ethr =  2.16E-12,  avg # of iterations =  1.0

     total cpu time spent up to now is      818.7 secs

     total energy              =   -1443.49693732 Ry
     estimated scf accuracy    <       0.00000001 Ry

     iteration #106     ecut=    60.00 Ry     beta= 0.70
     Davidson diagonalization with overlap
     ethr =  2.16E-12,  avg # of iterations =  1.0

     total cpu time spent up to now is      824.3 secs

     total energy              =   -1443.49693732 Ry
     estimated scf accuracy    <       0.00000001 Ry

     iteration #107     ecut=    60.00 Ry     beta= 0.70
     Davidson diagonalization with overlap
     ethr =  2.16E-12,  avg # of iterations =  2.1

     total cpu time spent up to now is      830.4 secs

     total energy              =   -1443.49693732 Ry
     estimated scf accuracy    <          6.5E-09 Ry

     iteration #108     ecut=    60.00 Ry     beta= 0.70
     Davidson diagonalization with overlap
     ethr =  2.16E-12,  avg # of iterations =  1.4

     total cpu time spent up to now is      836.3 secs

     total energy              =   -1443.49693732 Ry
     estimated scf accuracy    <          5.2E-09 Ry

     iteration #109     ecut=    60.00 Ry     beta= 0.70
     Davidson diagonalization with overlap
     ethr =  2.16E-12,  avg # of iterations =  1.0

     total cpu time spent up to now is      841.9 secs

     total energy              =   -1443.49693732 Ry
     estimated scf accuracy    <          4.9E-09 Ry

     iteration #110     ecut=    60.00 Ry     beta= 0.70
     Davidson diagonalization with overlap
     ethr =  2.16E-12,  avg # of iterations =  1.0

     total cpu time spent up to now is      847.5 secs

     total energy              =   -1443.49693732 Ry
     estimated scf accuracy    <          5.2E-09 Ry

     iteration #111     ecut=    60.00 Ry     beta= 0.70
     Davidson diagonalization with overlap
     ethr =  2.16E-12,  avg # of iterations =  5.3

     total cpu time spent up to now is      855.1 secs

     total energy              =   -1443.49693732 Ry
     estimated scf accuracy    <          8.9E-10 Ry

     iteration #112     ecut=    60.00 Ry     beta= 0.70
     Davidson diagonalization with overlap
     ethr =  9.12E-13,  avg # of iterations =  2.8

     total cpu time spent up to now is      861.6 secs

     total energy              =   -1443.49693732 Ry
     estimated scf accuracy    <          1.2E-09 Ry

     iteration #113     ecut=    60.00 Ry     beta= 0.70
     Davidson diagonalization with overlap
     ethr =  9.12E-13,  avg # of iterations =  1.0

     total cpu time spent up to now is      867.2 secs

     total energy              =   -1443.49693732 Ry
     estimated scf accuracy    <          1.1E-09 Ry

     iteration #114     ecut=    60.00 Ry     beta= 0.70
     Davidson diagonalization with overlap
     ethr =  9.12E-13,  avg # of iterations =  3.6

     total cpu time spent up to now is      874.0 secs

     total energy              =   -1443.49693732 Ry
     estimated scf accuracy    <          3.4E-09 Ry

     iteration #115     ecut=    60.00 Ry     beta= 0.70
     Davidson diagonalization with overlap
     ethr =  9.12E-13,  avg # of iterations =  1.0

     total cpu time spent up to now is      879.7 secs

     total energy              =   -1443.49693732 Ry
     estimated scf accuracy    <          3.5E-09 Ry

     iteration #116     ecut=    60.00 Ry     beta= 0.70
     Davidson diagonalization with overlap
     ethr =  9.12E-13,  avg # of iterations =  1.0

     total cpu time spent up to now is      885.3 secs

     total energy              =   -1443.49693732 Ry
     estimated scf accuracy    <          3.4E-09 Ry

     iteration #117     ecut=    60.00 Ry     beta= 0.70
     Davidson diagonalization with overlap
     ethr =  9.12E-13,  avg # of iterations =  1.0

     total cpu time spent up to now is      891.0 secs

     total energy              =   -1443.49693732 Ry
     estimated scf accuracy    <          3.4E-09 Ry

     iteration #118     ecut=    60.00 Ry     beta= 0.70
     Davidson diagonalization with overlap
     ethr =  9.12E-13,  avg # of iterations =  1.0

     total cpu time spent up to now is      896.6 secs

     total energy              =   -1443.49693732 Ry
     estimated scf accuracy    <          3.3E-09 Ry

     iteration #119     ecut=    60.00 Ry     beta= 0.70
     Davidson diagonalization with overlap
     ethr =  9.12E-13,  avg # of iterations =  1.1

     total cpu time spent up to now is      902.3 secs

     total energy              =   -1443.49693732 Ry
     estimated scf accuracy    <          3.0E-09 Ry

     iteration #120     ecut=    60.00 Ry     beta= 0.70
     Davidson diagonalization with overlap
     ethr =  9.12E-13,  avg # of iterations =  6.8

     total cpu time spent up to now is      912.7 secs

     total energy              =   -1443.49693732 Ry
     estimated scf accuracy    <       0.00000004 Ry

     iteration #121     ecut=    60.00 Ry     beta= 0.70
     Davidson diagonalization with overlap
     ethr =  9.12E-13,  avg # of iterations =  6.9

     total cpu time spent up to now is      922.2 secs

     total energy              =   -1443.49693732 Ry
     estimated scf accuracy    <          8.2E-09 Ry

     iteration #122     ecut=    60.00 Ry     beta= 0.70
     Davidson diagonalization with overlap
     ethr =  9.12E-13,  avg # of iterations =  1.0

     total cpu time spent up to now is      927.8 secs

     total energy              =   -1443.49693732 Ry
     estimated scf accuracy    <          7.5E-09 Ry

     iteration #123     ecut=    60.00 Ry     beta= 0.70
     Davidson diagonalization with overlap
     ethr =  9.12E-13,  avg # of iterations =  6.9

     total cpu time spent up to now is      936.1 secs

     End of self-consistent calculation

          k = 0.0000 0.0000 0.0000 ( 15329 PWs)   bands (ev):

   -50.1178 -46.6594 -44.7538 -27.9389 -27.9369 -23.3671 -23.2992 -23.2882
   -22.0738 -22.0297 -21.9862 -18.9202 -18.5408 -18.5398 -17.6026 -17.5808
   -17.2708 -17.2565 -17.2431 -13.9540 -13.2774 -13.2674 -12.8202 -12.3928
   -12.3810 -11.6008 -11.5777 -11.4067 -11.3799 -11.2888 -11.2853  -2.8683
    -0.4786  -0.3153  -0.2862  -0.0336  -0.0055   0.5834   0.5915   0.6593
     1.5634   1.6174   1.6240   1.7077   1.8689   1.8831   2.6978   2.7800
     2.9150

          k = 0.0017-0.0013 0.2000 ( 15340 PWs)   bands (ev):

   -50.1178 -46.6594 -44.7538 -27.9387 -27.9371 -23.3671 -23.2992 -23.2883
   -22.0738 -22.0297 -21.9862 -18.9203 -18.5410 -18.5401 -17.6025 -17.5808
   -17.2708 -17.2565 -17.2431 -13.9361 -13.3010 -13.2730 -12.7876 -12.4179
   -12.3850 -11.5993 -11.5750 -11.4032 -11.3815 -11.2882 -11.2849  -2.8746
    -0.5180  -0.3235  -0.2614  -0.0051   0.0235   0.5582   0.6250   0.7068
     1.3823   1.5215   1.7030   1.7745   1.9604   1.9939   2.5733   2.6406
     2.9523

          k = 0.0033-0.0027 0.4001 ( 15344 PWs)   bands (ev):

   -50.1178 -46.6594 -44.7538 -27.9383 -27.9375 -23.3671 -23.2993 -23.2883
   -22.0738 -22.0297 -21.9863 -18.9205 -18.5415 -18.5404 -17.6023 -17.5806
   -17.2708 -17.2565 -17.2432 -13.9044 -13.3472 -13.2732 -12.7301 -12.4672
   -12.3908 -11.5973 -11.5706 -11.3955 -11.3860 -11.2879 -11.2834  -2.8849
    -0.5654  -0.3465  -0.2140   0.0085   0.0793   0.5603   0.6844   0.7823
     1.2155   1.3963   1.7177   1.8303   2.1242   2.1566   2.4535   2.5464
     2.8530

          k =-0.0014 0.2002-0.0014 ( 15341 PWs)   bands (ev):

   -50.1178 -46.6594 -44.7538 -27.9389 -27.9369 -23.3671 -23.2992 -23.2883
   -22.0738 -22.0297 -21.9862 -18.9203 -18.5413 -18.5398 -17.6027 -17.5807
   -17.2708 -17.2565 -17.2431 -13.9384 -13.3073 -13.2658 -12.7901 -12.4008
   -12.3992 -11.6011 -11.5729 -11.4054 -11.3790 -11.2874 -11.2833  -2.8743
    -0.5123  -0.3054  -0.2889  -0.0228   0.0397   0.5558   0.6230   0.7103
     1.3816   1.5382   1.6935   1.7663   1.9722   1.9746   2.5736   2.6334
     2.9457

          k = 0.0003 0.1989 0.1987 ( 15346 PWs)   bands (ev):

   -50.1178 -46.6594 -44.7538 -27.9387 -27.9371 -23.3671 -23.2993 -23.2883
   -22.0738 -22.0297 -21.9862 -18.9204 -18.5414 -18.5401 -17.6025 -17.5806
   -17.2708 -17.2565 -17.2431 -13.9274 -13.3023 -13.2733 -12.7952 -12.4226
   -12.3852 -11.6003 -11.5729 -11.4022 -11.3809 -11.2865 -11.2829  -2.8815
    -0.4814  -0.3150  -0.2661   0.0168   0.0353   0.5211   0.5622   0.6956
     1.4331   1.4809   1.7275   1.8040   1.9324   2.0432   2.5966   2.6275
     2.9486

          k = 0.0020 0.1975 0.3987 ( 15339 PWs)   bands (ev):

   -50.1178 -46.6594 -44.7538 -27.9383 -27.9375 -23.3671 -23.2993 -23.2883
   -22.0738 -22.0297 -21.9862 -18.9206 -18.5418 -18.5405 -17.6022 -17.5804
   -17.2708 -17.2565 -17.2433 -13.8946 -13.3482 -13.2741 -12.7564 -12.4511
   -12.3890 -11.5980 -11.5730 -11.3951 -11.3856 -11.2862 -11.2815  -2.8948
    -0.5123  -0.3426  -0.2014   0.0152   0.0945   0.5061   0.5995   0.7753
     1.2719   1.4655   1.5954   1.8938   2.0187   2.1838   2.5336   2.5649
     2.8614

          k =-0.0047 0.2029-0.4014 ( 15313 PWs)   bands (ev):

   -50.1178 -46.6594 -44.7538 -27.9383 -27.9375 -23.3671 -23.2993 -23.2883
   -22.0737 -22.0296 -21.9862 -18.9205 -18.5418 -18.5405 -17.6022 -17.5804
   -17.2708 -17.2565 -17.2433 -13.8849 -13.3761 -13.2715 -12.7251 -12.4667
   -12.3895 -11.5972 -11.5732 -11.3951 -11.3853 -11.2862 -11.2817  -2.8957
    -0.5483  -0.3484  -0.2029  -0.0045   0.1062   0.5584   0.7044   0.8123
     1.2155   1.3554   1.5841   1.9139   2.0564   2.2230   2.4552   2.5003
     2.8730

          k =-0.0030 0.2015-0.2014 ( 15332 PWs)   bands (ev):

   -50.1178 -46.6594 -44.7538 -27.9387 -27.9371 -23.3671 -23.2992 -23.2883
   -22.0738 -22.0297 -21.9862 -18.9204 -18.5414 -18.5401 -17.6025 -17.5806
   -17.2708 -17.2565 -17.2432 -13.9139 -13.3479 -13.2687 -12.7473 -12.4392
   -12.3894 -11.5993 -11.5730 -11.4021 -11.3805 -11.2868 -11.2830  -2.8831
    -0.5515  -0.3251  -0.2581  -0.0164   0.0729   0.5750   0.6973   0.7944
     1.2539   1.4146   1.6102   1.8885   2.0004   2.1497   2.4021   2.5608
     2.9689

          k =-0.0028 0.4004-0.0028 ( 15333 PWs)   bands (ev):

   -50.1178 -46.6594 -44.7538 -27.9389 -27.9369 -23.3671 -23.2992 -23.2883
   -22.0738 -22.0297 -21.9862 -18.9204 -18.5420 -18.5397 -17.6027 -17.5804
   -17.2708 -17.2565 -17.2431 -13.9110 -13.3537 -13.2632 -12.7416 -12.4325
   -12.4137 -11.6019 -11.5653 -11.4033 -11.3776 -11.2847 -11.2801  -2.8840
    -0.5554  -0.3350  -0.2476  -0.0022   0.0917   0.5455   0.6758   0.7999
     1.2194   1.4105   1.7004   1.8348   2.1333   2.1444   2.4230   2.5265
     2.8371

          k =-0.0011 0.3991 0.1973 ( 15337 PWs)   bands (ev):

   -50.1178 -46.6594 -44.7538 -27.9387 -27.9370 -23.3671 -23.2993 -23.2884
   -22.0738 -22.0297 -21.9862 -18.9205 -18.5421 -18.5401 -17.6025 -17.5803
   -17.2708 -17.2565 -17.2432 -13.8989 -13.3520 -13.2679 -12.7622 -12.4371
   -12.3971 -11.6010 -11.5695 -11.4006 -11.3798 -11.2838 -11.2797  -2.8943
    -0.5080  -0.3257  -0.2283   0.0078   0.0977   0.4981   0.6069   0.7734
     1.2790   1.4692   1.5958   1.9008   1.9903   2.1989   2.5210   2.5493
     2.8480

          k = 0.0006 0.3978 0.3973 ( 15309 PWs)   bands (ev):

   -50.1178 -46.6594 -44.7538 -27.9383 -27.9375 -23.3671 -23.2993 -23.2884
   -22.0737 -22.0296 -21.9862 -18.9207 -18.5425 -18.5406 -17.6021 -17.5801
   -17.2708 -17.2565 -17.2434 -13.8681 -13.3784 -13.2729 -12.7681 -12.4391
   -12.3881 -11.5984 -11.5772 -11.3944 -11.3848 -11.2832 -11.2784  -2.9116
    -0.4796  -0.3069  -0.2015   0.0690   0.0748   0.4877   0.5211   0.8598
     1.2682   1.3665   1.6572   1.7034   2.1322   2.2035   2.4810   2.6193
     2.8833

          k =-0.0061 0.4031-0.4028 ( 15304 PWs)   bands (ev):

   -50.1178 -46.6594 -44.7538 -27.9383 -27.9375 -23.3671 -23.2993 -23.2884
   -22.0737 -22.0297 -21.9862 -18.9207 -18.5424 -18.5406 -17.6021 -17.5801
   -17.2708 -17.2565 -17.2434 -13.8612 -13.3963 -13.2713 -12.7508 -12.4450
   -12.3904 -11.5977 -11.5775 -11.3944 -11.3847 -11.2832 -11.2785  -2.9122
    -0.4973  -0.3340  -0.1780   0.0064   0.1251   0.5082   0.5911   0.8895
     1.2085   1.4134   1.4920   1.8058   2.1021   2.2577   2.4443   2.5588
     2.8963

          k =-0.0044 0.4018-0.2028 ( 15306 PWs)   bands (ev):

   -50.1178 -46.6594 -44.7538 -27.9387 -27.9370 -23.3671 -23.2993 -23.2884
   -22.0737 -22.0296 -21.9862 -18.9205 -18.5421 -18.5401 -17.6024 -17.5802
   -17.2708 -17.2565 -17.2432 -13.8893 -13.3783 -13.2667 -12.7327 -12.4480
   -12.4005 -11.6004 -11.5696 -11.4006 -11.3795 -11.2839 -11.2798  -2.8952
    -0.5430  -0.3409  -0.2236  -0.0097   0.1133   0.5469   0.7074   0.8150
     1.2224   1.3645   1.5729   1.9108   2.0526   2.2372   2.4324   2.4836
     2.8652

          k = 0.2017-0.0027 0.2017 ( 15326 PWs)   bands (ev):

   -50.1178 -46.6594 -44.7538 -27.9384 -27.9374 -23.3671 -23.2993 -23.2883
   -22.0737 -22.0297 -21.9862 -18.9204 -18.5410 -18.5405 -17.6023 -17.5807
   -17.2708 -17.2565 -17.2432 -13.9234 -13.3135 -13.2657 -12.8072 -12.3942
   -12.3941 -11.6025 -11.5762 -11.3982 -11.3864 -11.2888 -11.2833  -2.8843
    -0.4924  -0.2901  -0.2650   0.0171   0.0268   0.5395   0.5566   0.6930
     1.4365   1.4858   1.7240   1.7768   1.9213   2.0871   2.5618   2.6198
     2.9456

          k = 0.2034-0.0040 0.4017 ( 15308 PWs)   bands (ev):

   -50.1178 -46.6594 -44.7538 -27.9381 -27.9377 -23.3671 -23.2993 -23.2883
   -22.0737 -22.0297 -21.9862 -18.9206 -18.5414 -18.5408 -17.6020 -17.5806
   -17.2708 -17.2565 -17.2433 -13.8930 -13.3525 -13.2672 -12.7717 -12.4310
   -12.3923 -11.6016 -11.5734 -11.3929 -11.3893 -11.2884 -11.2816  -2.8965
    -0.5254  -0.3260  -0.1972   0.0159   0.0970   0.5099   0.6171   0.7544
     1.2803   1.4716   1.5948   1.8697   2.0087   2.2121   2.5291   2.5499
     2.8641

          k = 0.1967 0.0013-0.3984 ( 15340 PWs)   bands (ev):

   -50.1178 -46.6594 -44.7538 -27.9384 -27.9374 -23.3671 -23.2993 -23.2883
   -22.0738 -22.0297 -21.9862 -18.9206 -18.5415 -18.5408 -17.6021 -17.5806
   -17.2708 -17.2565 -17.2433 -13.8871 -13.3673 -13.2702 -12.7235 -12.4733
   -12.3941 -11.5984 -11.5701 -11.3981 -11.3826 -11.2877 -11.2821  -2.8945
    -0.5590  -0.3491  -0.1914  -0.0038   0.1144   0.5579   0.7215   0.7825
     1.2233   1.3586   1.5983   1.8849   2.0632   2.2258   2.4832   2.5094
     2.8619

          k = 0.1984-0.0000-0.1984 ( 15346 PWs)   bands (ev):

   -50.1178 -46.6594 -44.7538 -27.9387 -27.9371 -23.3671 -23.2993 -23.2883
   -22.0738 -22.0297 -21.9862 -18.9204 -18.5410 -18.5405 -17.6024 -17.5807
   -17.2708 -17.2565 -17.2432 -13.9152 -13.3351 -13.2737 -12.7344 -12.4626
   -12.3902 -11.5971 -11.5709 -11.4025 -11.3797 -11.2869 -11.2849  -2.8810
    -0.5599  -0.3390  -0.2378  -0.0106   0.0737   0.5813   0.6886   0.7840
     1.2587   1.4142   1.6251   1.8672   2.0227   2.1354   2.4303   2.5770
     2.9904

          k = 0.2003 0.1975 0.2003 ( 15319 PWs)   bands (ev):

   -50.1178 -46.6594 -44.7538 -27.9384 -27.9374 -23.3671 -23.2993 -23.2883
   -22.0737 -22.0297 -21.9862 -18.9205 -18.5415 -18.5405 -17.6023 -17.5805
   -17.2708 -17.2565 -17.2432 -13.9251 -13.2766 -13.2642 -12.8527 -12.4021
   -12.3869 -11.6031 -11.5714 -11.3970 -11.3857 -11.2867 -11.2813  -2.8877
    -0.3588  -0.3132  -0.2947   0.0378   0.0467   0.4821   0.4877   0.5185
     1.6003   1.6416   1.6585   1.8584   1.8665   1.9928   2.6606   2.6699
     2.9129

          k = 0.2020 0.1962 0.4004 ( 15320 PWs)   bands (ev):

   -50.1178 -46.6594 -44.7538 -27.9381 -27.9377 -23.3671 -23.2993 -23.2884
   -22.0738 -22.0297 -21.9862 -18.9207 -18.5418 -18.5409 -17.6020 -17.5803
   -17.2708 -17.2565 -17.2433 -13.8960 -13.3085 -13.2719 -12.8291 -12.4194
   -12.3895 -11.6024 -11.5708 -11.3926 -11.3879 -11.2862 -11.2797  -2.9005
    -0.4383  -0.3328  -0.1637   0.0444   0.0940   0.4042   0.5149   0.5991
     1.4299   1.5738   1.6863   1.8184   2.0257   2.0954   2.5902   2.6166
     2.8849

          k = 0.1953 0.2015-0.3998 ( 15316 PWs)   bands (ev):

   -50.1178 -46.6594 -44.7538 -27.9384 -27.9374 -23.3671 -23.2993 -23.2884
   -22.0738 -22.0297 -21.9862 -18.9206 -18.5418 -18.5409 -17.6020 -17.5804
   -17.2708 -17.2565 -17.2433 -13.8779 -13.3635 -13.2727 -12.7580 -12.4531
   -12.3917 -11.5989 -11.5722 -11.3979 -11.3818 -11.2855 -11.2805  -2.9023
    -0.5205  -0.3420  -0.1736   0.0249   0.1092   0.4972   0.6105   0.7858
     1.2723   1.3672   1.7071   1.7874   2.1111   2.1604   2.5036   2.5497
     2.8740

          k = 0.1970 0.2002-0.1997 ( 15326 PWs)   bands (ev):

   -50.1178 -46.6594 -44.7538 -27.9387 -27.9371 -23.3671 -23.2993 -23.2883
   -22.0738 -22.0297 -21.9862 -18.9205 -18.5415 -18.5405 -17.6023 -17.5805
   -17.2708 -17.2565 -17.2432 -13.8991 -13.3565 -13.2732 -12.7360 -12.4590
   -12.3879 -11.5973 -11.5737 -11.4020 -11.3792 -11.2850 -11.2832  -2.8906
    -0.5400  -0.3273  -0.2457   0.0092   0.0809   0.5654   0.6450   0.8546
     1.2641   1.3123   1.7201   1.7437   2.1017   2.1537   2.4572   2.5338
     2.9515

          k = 0.1989 0.3978 0.1989 ( 15321 PWs)   bands (ev):

   -50.1178 -46.6594 -44.7538 -27.9384 -27.9373 -23.3671 -23.2993 -23.2884
   -22.0737 -22.0297 -21.9862 -18.9206 -18.5422 -18.5405 -17.6023 -17.5802
   -17.2708 -17.2565 -17.2433 -13.9016 -13.3092 -13.2617 -12.8281 -12.4151
   -12.4079 -11.6028 -11.5635 -11.3946 -11.3839 -11.2839 -11.2783  -2.8982
    -0.4317  -0.3194  -0.2024   0.0434   0.0988   0.4007   0.5150   0.5935
     1.4274   1.6082   1.6659   1.8205   2.0326   2.0820   2.5836   2.6135
     2.8844

          k = 0.2006 0.3964 0.3990 ( 15321 PWs)   bands (ev):

   -50.1178 -46.6594 -44.7538 -27.9381 -27.9377 -23.3672 -23.2994 -23.2884
   -22.0737 -22.0297 -21.9862 -18.9208 -18.5425 -18.5410 -17.6019 -17.5800
   -17.2708 -17.2565 -17.2435 -13.8773 -13.3135 -13.2723 -12.8454 -12.4254
   -12.3921 -11.6021 -11.5670 -11.3910 -11.3860 -11.2831 -11.2768  -2.9126
    -0.4091  -0.3081  -0.1368   0.0607   0.1016   0.3881   0.4107   0.6208
     1.4524   1.5337   1.6547   1.8650   1.9895   2.1192   2.5614   2.6580
     2.9038

          k = 0.1939 0.4018-0.4012 ( 15327 PWs)   bands (ev):

   -50.1178 -46.6594 -44.7538 -27.9384 -27.9374 -23.3671 -23.2993 -23.2884
   -22.0738 -22.0297 -21.9862 -18.9208 -18.5425 -18.5410 -17.6018 -17.5800
   -17.2708 -17.2565 -17.2435 -13.8566 -13.3734 -13.2748 -12.7913 -12.4354
   -12.3875 -11.5990 -11.5760 -11.3971 -11.3808 -11.2822 -11.2776  -2.9174
    -0.4631  -0.3289  -0.1354   0.0169   0.1323   0.4359   0.5266   0.7823
     1.2831   1.4853   1.5304   1.8527   2.0538   2.1879   2.4840   2.6169
     2.8918

          k = 0.1956 0.4004-0.2011 ( 15318 PWs)   bands (ev):

   -50.1178 -46.6594 -44.7538 -27.9387 -27.9371 -23.3671 -23.2993 -23.2884
   -22.0738 -22.0297 -21.9862 -18.9206 -18.5422 -18.5405 -17.6022 -17.5801
   -17.2708 -17.2565 -17.2433 -13.8708 -13.3917 -13.2726 -12.7420 -12.4468
   -12.3885 -11.5978 -11.5782 -11.4014 -11.3786 -11.2816 -11.2805  -2.9062
    -0.5105  -0.3294  -0.2187  -0.0019   0.1191   0.5346   0.6499   0.8719
     1.2241   1.3448   1.5382   1.8510   2.0744   2.2381   2.4575   2.5351
     2.8629

          k = 0.2045-0.4031 0.2045 ( 15288 PWs)   bands (ev):

   -50.1178 -46.6594 -44.7538 -27.9384 -27.9373 -23.3671 -23.2993 -23.2884
   -22.0737 -22.0296 -21.9862 -18.9206 -18.5422 -18.5405 -17.6022 -17.5802
   -17.2708 -17.2565 -17.2434 -13.8830 -13.3644 -13.2618 -12.7669 -12.4329
   -12.4152 -11.6019 -11.5634 -11.3945 -11.3834 -11.2843 -11.2784  -2.9010
    -0.5190  -0.3301  -0.2059   0.0283   0.1181   0.4880   0.6067   0.7835
     1.2724   1.3898   1.6919   1.7682   2.1414   2.1617   2.4819   2.5196
     2.8882

          k = 0.2061-0.4044 0.4045 ( 15298 PWs)   bands (ev):

   -50.1178 -46.6594 -44.7538 -27.9381 -27.9377 -23.3671 -23.2994 -23.2884
   -22.0737 -22.0296 -21.9862 -18.9208 -18.5425 -18.5410 -17.6018 -17.5800
   -17.2708 -17.2565 -17.2435 -13.8608 -13.3670 -13.2655 -12.7969 -12.4349
   -12.4014 -11.6012 -11.5671 -11.3902 -11.3863 -11.2834 -11.2768  -2.9158
    -0.4710  -0.3221  -0.1514   0.0333   0.1316   0.4391   0.5284   0.7593
     1.3039   1.4885   1.5287   1.8387   2.0393   2.2195   2.4731   2.6141
     2.9029

          k = 0.1995-0.3991-0.3956 ( 15317 PWs)   bands (ev):

   -50.1178 -46.6594 -44.7538 -27.9384 -27.9374 -23.3671 -23.2994 -23.2884
   -22.0737 -22.0297 -21.9862 -18.9208 -18.5425 -18.5410 -17.6018 -17.5800
   -17.2708 -17.2565 -17.2435 -13.8525 -13.3854 -13.2724 -12.7811 -12.4376
   -12.3900 -11.5986 -11.5763 -11.3968 -11.3810 -11.2824 -11.2775  -2.9188
    -0.4700  -0.3141  -0.1798   0.0566   0.1072   0.4767   0.5231   0.8495
     1.2689   1.3530   1.6651   1.6880   2.1563   2.1826   2.4549   2.6316
     2.8908

          k = 0.2031-0.2029 0.2031 ( 15324 PWs)   bands (ev):

   -50.1178 -46.6594 -44.7538 -27.9384 -27.9374 -23.3671 -23.2993 -23.2883
   -22.0738 -22.0297 -21.9862 -18.9205 -18.5415 -18.5405 -17.6022 -17.5805
   -17.2708 -17.2565 -17.2433 -13.8976 -13.3644 -13.2643 -12.7556 -12.4245
   -12.4023 -11.6016 -11.5712 -11.3967 -11.3848 -11.2874 -11.2814  -2.8925
    -0.5427  -0.3116  -0.2605   0.0102   0.0868   0.5682   0.6421   0.8580
     1.2640   1.3169   1.7134   1.7277   2.1016   2.1813   2.4213   2.5145
     2.9765

          k = 0.2047-0.2042 0.4031 ( 15300 PWs)   bands (ev):

   -50.1178 -46.6594 -44.7538 -27.9381 -27.9377 -23.3671 -23.2993 -23.2884
   -22.0737 -22.0296 -21.9862 -18.9206 -18.5418 -18.5409 -17.6019 -17.5804
   -17.2708 -17.2565 -17.2434 -13.8708 -13.3853 -13.2654 -12.7508 -12.4470
   -12.3960 -11.6010 -11.5709 -11.3914 -11.3881 -11.2868 -11.2798  -2.9058
    -0.5265  -0.3297  -0.2105   0.0170   0.1241   0.5379   0.6500   0.8503
     1.2277   1.3652   1.5271   1.8341   2.0859   2.2436   2.4573   2.5408
     2.8827

          k = 0.1981-0.1989-0.3970 ( 15311 PWs)   bands (ev):

   -50.1178 -46.6594 -44.7538 -27.9384 -27.9374 -23.3671 -23.2993 -23.2884
   -22.0737 -22.0297 -21.9862 -18.9207 -18.5418 -18.5409 -17.6020 -17.5804
   -17.2708 -17.2565 -17.2433 -13.8719 -13.3811 -13.2698 -12.7394 -12.4617
   -12.3932 -11.5984 -11.5724 -11.3974 -11.3820 -11.2859 -11.2803  -2.9047
    -0.5229  -0.3392  -0.2024   0.0116   0.1239   0.5391   0.6445   0.8541
     1.2304   1.3490   1.5482   1.8386   2.0762   2.2353   2.4738   2.5591
     2.8704

          k = 0.4034-0.0053 0.4034 ( 15294 PWs)   bands (ev):

   -50.1178 -46.6594 -44.7538 -27.9381 -27.9377 -23.3672 -23.2993 -23.2884
   -22.0737 -22.0297 -21.9862 -18.9207 -18.5416 -18.5413 -17.6016 -17.5805
   -17.2708 -17.2565 -17.2434 -13.8675 -13.3746 -13.2631 -12.7889 -12.4167
   -12.3963 -11.6058 -11.5740 -11.3968 -11.3852 -11.2883 -11.2790  -2.9130
    -0.5130  -0.2941  -0.1733   0.0770   0.0958   0.5060   0.5153   0.8205
     1.2974   1.3898   1.6410   1.6675   2.1363   2.2211   2.4682   2.6416
     2.8629

          k = 0.3967 0.0000-0.3967 ( 15308 PWs)   bands (ev):

   -50.1178 -46.6594 -44.7538 -27.9384 -27.9374 -23.3672 -23.2993 -23.2884
   -22.0738 -22.0297 -21.9862 -18.9207 -18.5416 -18.5414 -17.6017 -17.5806
   -17.2708 -17.2565 -17.2434 -13.8634 -13.3846 -13.2648 -12.7627 -12.4403
   -12.3963 -11.6033 -11.5724 -11.3987 -11.3823 -11.2880 -11.2792  -2.9118
    -0.5278  -0.3255  -0.1540   0.0197   0.1432   0.5076   0.6037   0.8433
     1.2338   1.4462   1.4774   1.7722   2.1124   2.2588   2.4472   2.6036
     2.8703

          k = 0.4020 0.1949 0.4020 ( 15325 PWs)   bands (ev):

   -50.1178 -46.6594 -44.7538 -27.9381 -27.9377 -23.3672 -23.2994 -23.2884
   -22.0738 -22.0297 -21.9862 -18.9208 -18.5418 -18.5416 -17.6016 -17.5803
   -17.2708 -17.2565 -17.2434 -13.8755 -13.3195 -13.2617 -12.8574 -12.4044
   -12.4000 -11.6053 -11.5689 -11.3956 -11.3837 -11.2860 -11.2772  -2.9141
    -0.4381  -0.2933  -0.1012   0.0513   0.1083   0.4035   0.4259   0.5861
     1.4886   1.5386   1.6327   1.8207   1.9938   2.1457   2.5576   2.6716
     2.8788

          k = 0.3954 0.2002-0.3981 ( 15315 PWs)   bands (ev):

   -50.1178 -46.6594 -44.7538 -27.9383 -27.9374 -23.3672 -23.2994 -23.2884
   -22.0738 -22.0297 -21.9862 -18.9208 -18.5418 -18.5417 -17.6016 -17.5803
   -17.2708 -17.2565 -17.2435 -13.8595 -13.3647 -13.2652 -12.8021 -12.4309
   -12.3976 -11.6032 -11.5697 -11.3976 -11.3810 -11.2859 -11.2775  -2.9165
    -0.4867  -0.3204  -0.1255   0.0329   0.1410   0.4390   0.5420   0.7374
     1.3209   1.4658   1.5522   1.8186   2.0436   2.2188   2.4791   2.6391
     2.8818

          k = 0.4006 0.3951 0.4006 ( 15299 PWs)   bands (ev):

   -50.1178 -46.6594 -44.7538 -27.9381 -27.9377 -23.3672 -23.2994 -23.2885
   -22.0737 -22.0297 -21.9862 -18.9210 -18.5426 -18.5416 -17.6015 -17.5799
   -17.2708 -17.2565 -17.2436 -13.8688 -13.2757 -13.2593 -12.9191 -12.4174
   -12.3966 -11.6039 -11.5608 -11.3933 -11.3810 -11.2826 -11.2745  -2.9208
    -0.3261  -0.3029  -0.1115   0.0929   0.1122   0.3371   0.4070   0.4080
     1.5623   1.6140   1.6732   1.9198   1.9472   2.0209   2.5890   2.6902
     2.8978

          k = 0.3940 0.4004-0.3995 ( 15305 PWs)   bands (ev):

   -50.1178 -46.6594 -44.7538 -27.9383 -27.9374 -23.3672 -23.2994 -23.2885
   -22.0738 -22.0297 -21.9862 -18.9210 -18.5426 -18.5417 -17.6015 -17.5799
   -17.2708 -17.2565 -17.2436 -13.8538 -13.3201 -13.2713 -12.8686 -12.4250
   -12.3940 -11.6026 -11.5656 -11.3958 -11.3789 -11.2823 -11.2748  -2.9245
    -0.3951  -0.3216  -0.0699   0.0698   0.1140   0.3381   0.4392   0.5953
     1.4489   1.4955   1.6764   1.8311   2.0422   2.0838   2.5320   2.6759
     2.8996

          k = 0.4062-0.4058 0.4062 ( 15267 PWs)   bands (ev):

   -50.1178 -46.6594 -44.7538 -27.9381 -27.9377 -23.3672 -23.2994 -23.2885
   -22.0737 -22.0296 -21.9862 -18.9210 -18.5426 -18.5416 -17.6014 -17.5799
   -17.2708 -17.2565 -17.2436 -13.8562 -13.3205 -13.2594 -12.8745 -12.4175
   -12.4092 -11.6034 -11.5607 -11.3929 -11.3809 -11.2829 -11.2746  -2.9235
    -0.4069  -0.3097  -0.0751   0.0756   0.1039   0.3474   0.4623   0.5618
     1.4602   1.5099   1.6677   1.8020   2.0617   2.0899   2.5258   2.6744
     2.9006

          k = 0.4048-0.2055 0.4048 ( 15300 PWs)   bands (ev):

   -50.1178 -46.6594 -44.7538 -27.9381 -27.9377 -23.3672 -23.2994 -23.2884
   -22.0737 -22.0297 -21.9862 -18.9209 -18.5418 -18.5416 -17.6015 -17.5803
   -17.2708 -17.2565 -17.2435 -13.8547 -13.3784 -13.2617 -12.7965 -12.4233
   -12.4045 -11.6045 -11.5688 -11.3950 -11.3835 -11.2865 -11.2773  -2.9186
    -0.4967  -0.3034  -0.1678   0.0764   0.1148   0.4833   0.5273   0.8075
     1.3090   1.3595   1.6557   1.6562   2.1762   2.1910   2.4376   2.6430
     2.8855

     highest occupied level (ev):     2.9904

!    total energy              =   -1443.49693732 Ry
     total all-electron energy =     -1443.496937 Ry
     estimated scf accuracy    <          8.8E-11 Ry

     The total energy is the sum of the following terms:
     one-electron contribution =    -598.44938151 Ry
     hartree contribution      =     339.62738685 Ry
     xc contribution           =    -128.19922599 Ry
     ewald contribution        =    -334.36770234 Ry
     one-center paw contrib.   =    -722.10801433 Ry

     convergence has been achieved in 123 iterations

     Forces acting on atoms (cartesian axes, Ry/au):

     atom    1 type  1   force =    -0.00962230   -0.00670650   -0.00962230
     atom    2 type  2   force =    -0.00441510   -0.00280943    0.00455499
     atom    3 type  1   force =    -0.00110925    0.00636404   -0.00110925
     atom    4 type  2   force =     0.00455499   -0.00280943   -0.00441510
     atom    5 type  4   force =     0.01795374    0.01394050    0.01795374
     atom    6 type  3   force =    -0.02095925   -0.01476771   -0.02095925
     atom    7 type  5   force =    -0.00022223    0.01273965    0.01679926
     atom    8 type  5   force =     0.00705612   -0.01233995   -0.01710160
     atom    9 type  5   force =     0.02276833   -0.00221274    0.02276833
     atom   10 type  5   force =    -0.01570272    0.00820188   -0.01570272
     atom   11 type  5   force =     0.01679926    0.01273965   -0.00022223
     atom   12 type  5   force =    -0.01710160   -0.01233995    0.00705612

     Total force =     0.076062     Total SCF correction =     0.000029


     Computing stress (Cartesian axis) and pressure

          total   stress  (Ry/bohr**3)                   (kbar)     P=       26.17
   0.00018067   0.00015937   0.00013225           26.58       23.44       19.45
   0.00015937   0.00017226   0.00015937           23.44       25.34       23.44
   0.00013225   0.00015937   0.00018067           19.45       23.44       26.58


     BFGS Geometry Optimization
     Energy error            =      0.0E+00 Ry
     Gradient error          =      2.3E-02 Ry/Bohr
     Cell gradient error     =      2.7E+01 kbar

     number of scf cycles    =   1
     number of bfgs steps    =   0

     enthalpy           new  =   -1443.4969373195 Ry

     new trust radius        =       0.0626657797 bohr
     new conv_thr            =            1.0E-10 Ry

     new unit-cell volume =   1978.09345 a.u.^3 (   293.12321 Ang^3 )
     density =      2.43619 g/cm^3

CELL_PARAMETERS (angstrom)
   6.645721704   0.071516410  -0.033024336
   0.070375006   6.638595699   0.070375006
  -0.033024336   0.071516410   6.645721704

ATOMIC_POSITIONS (angstrom)
Na            0.0311724847        0.0355863553        0.0311724847
K             3.3657128100        3.3675951683        0.0059308147
Na            3.2942500736        0.1019302549        3.2942500736
K             0.0059308147        3.3675951683        3.3657128100
Sn            1.5182930150        1.4376344985        1.5182930150
Zr            5.2664467124        5.3889831011        5.2664467124
O             2.2459558865        0.1374753776        0.1056016003
O             4.3968401257       -0.1325399654       -0.2125018515
O             0.1775137147        2.2476519487        0.1775137147
O            -0.1459982621        4.3880382399       -0.1459982621
O             0.1056016003        0.1374753776        2.2459558865
O            -0.2125018515       -0.1325399654        4.3968401257



     Writing config-only to output data dir ./K4ZrSnO6.save/
     NEW-OLD atomic charge density approx. for the potential
     extrapolated charge   99.29094, renormalised to   98.00000

     total cpu time spent up to now is      994.7 secs

     per-process dynamical memory:   135.4 Mb

     Self-consistent Calculation

     iteration #  1     ecut=    60.00 Ry     beta= 0.70
     Davidson diagonalization with overlap
     ethr =  1.00E-06,  avg # of iterations = 13.7

     total cpu time spent up to now is     1016.1 secs

     total energy              =   -1442.83830398 Ry
     estimated scf accuracy    <       0.69678541 Ry

     iteration #  2     ecut=    60.00 Ry     beta= 0.70
     Davidson diagonalization with overlap
     ethr =  7.11E-04,  avg # of iterations =  6.0

     total cpu time spent up to now is     1028.3 secs

     total energy              =   -1443.16893773 Ry
     estimated scf accuracy    <       5.86549567 Ry

     iteration #  3     ecut=    60.00 Ry     beta= 0.70
     Davidson diagonalization with overlap
     ethr =  7.11E-04,  avg # of iterations =  5.0

     total cpu time spent up to now is     1038.2 secs

     total energy              =   -1443.52267534 Ry
     estimated scf accuracy    <       0.90758744 Ry

     iteration #  4     ecut=    60.00 Ry     beta= 0.70
     Davidson diagonalization with overlap
     ethr =  7.11E-04,  avg # of iterations =  4.8

     total cpu time spent up to now is     1046.3 secs

     total energy              =   -1443.53448814 Ry
     estimated scf accuracy    <       0.89195809 Ry

     iteration #  5     ecut=    60.00 Ry     beta= 0.70
     Davidson diagonalization with overlap
     ethr =  7.11E-04,  avg # of iterations =  6.2

     total cpu time spent up to now is     1054.5 secs

     total energy              =   -1443.54427708 Ry
     estimated scf accuracy    <       0.52465733 Ry

     iteration #  6     ecut=    60.00 Ry     beta= 0.70
     Davidson diagonalization with overlap
     ethr =  5.35E-04,  avg # of iterations =  1.1

     total cpu time spent up to now is     1060.2 secs

     total energy              =   -1443.51964503 Ry
     estimated scf accuracy    <       0.38709828 Ry

     iteration #  7     ecut=    60.00 Ry     beta= 0.70
     Davidson diagonalization with overlap
     ethr =  3.95E-04,  avg # of iterations =  1.9

     total cpu time spent up to now is     1066.2 secs

     total energy              =   -1443.50907266 Ry
     estimated scf accuracy    <       0.25345784 Ry

     iteration #  8     ecut=    60.00 Ry     beta= 0.70
     Davidson diagonalization with overlap
     ethr =  2.59E-04,  avg # of iterations =  2.2

     total cpu time spent up to now is     1072.3 secs

     total energy              =   -1443.49968526 Ry
     estimated scf accuracy    <       0.16120263 Ry

     iteration #  9     ecut=    60.00 Ry     beta= 0.70
     Davidson diagonalization with overlap
     ethr =  1.64E-04,  avg # of iterations =  5.4

     total cpu time spent up to now is     1080.1 secs

     total energy              =   -1443.51066596 Ry
     estimated scf accuracy    <       0.08152434 Ry

     iteration # 10     ecut=    60.00 Ry     beta= 0.70
     Davidson diagonalization with overlap
     ethr =  8.32E-05,  avg # of iterations =  3.7

     total cpu time spent up to now is     1087.0 secs

     total energy              =   -1443.50568860 Ry
     estimated scf accuracy    <       0.14672857 Ry

     iteration # 11     ecut=    60.00 Ry     beta= 0.70
     Davidson diagonalization with overlap
     ethr =  8.32E-05,  avg # of iterations =  7.5

     total cpu time spent up to now is     1096.5 secs

     total energy              =   -1443.49975514 Ry
     estimated scf accuracy    <       0.20521436 Ry

     iteration # 12     ecut=    60.00 Ry     beta= 0.70
     Davidson diagonalization with overlap
     ethr =  8.32E-05,  avg # of iterations =  6.4

     total cpu time spent up to now is     1105.4 secs

     total energy              =   -1443.51161877 Ry
     estimated scf accuracy    <       0.01955866 Ry

     iteration # 13     ecut=    60.00 Ry     beta= 0.70
     Davidson diagonalization with overlap
     ethr =  2.00E-05,  avg # of iterations =  2.8

     total cpu time spent up to now is     1111.8 secs

     total energy              =   -1443.51256599 Ry
     estimated scf accuracy    <       0.01240362 Ry

     iteration # 14     ecut=    60.00 Ry     beta= 0.70
     Davidson diagonalization with overlap
     ethr =  1.27E-05,  avg # of iterations =  1.4

     total cpu time spent up to now is     1117.6 secs

     total energy              =   -1443.51301759 Ry
     estimated scf accuracy    <       0.01337604 Ry

     iteration # 15     ecut=    60.00 Ry     beta= 0.70
     Davidson diagonalization with overlap
     ethr =  1.27E-05,  avg # of iterations =  1.0

     total cpu time spent up to now is     1123.2 secs

     total energy              =   -1443.51256734 Ry
     estimated scf accuracy    <       0.01440417 Ry

     iteration # 16     ecut=    60.00 Ry     beta= 0.70
     Davidson diagonalization with overlap
     ethr =  1.27E-05,  avg # of iterations =  1.1

     total cpu time spent up to now is     1128.9 secs

     total energy              =   -1443.51259311 Ry
     estimated scf accuracy    <       0.01256183 Ry

     iteration # 17     ecut=    60.00 Ry     beta= 0.70
     Davidson diagonalization with overlap
     ethr =  1.27E-05,  avg # of iterations =  1.0

     total cpu time spent up to now is     1134.5 secs

     total energy              =   -1443.51258520 Ry
     estimated scf accuracy    <       0.01236065 Ry

     iteration # 18     ecut=    60.00 Ry     beta= 0.70
     Davidson diagonalization with overlap
     ethr =  1.26E-05,  avg # of iterations =  1.0

[...]

     total cpu time spent up to now is     6343.3 secs

     total energy              =   -1443.51263850 Ry
     estimated scf accuracy    <       0.00009570 Ry

     iteration #378     ecut=    60.00 Ry     beta= 0.70
     Davidson diagonalization with overlap
     ethr =  2.02E-13,  avg # of iterations =  7.9

     total cpu time spent up to now is     6352.2 secs

     total energy              =   -1443.51263836 Ry
     estimated scf accuracy    <       0.00009460 Ry

     iteration #379     ecut=    60.00 Ry     beta= 0.70
     Davidson diagonalization with overlap
     ethr =  2.02E-13,  avg # of iterations =  7.4

     total cpu time spent up to now is     6365.1 secs

     total energy              =   -1443.51263768 Ry
     estimated scf accuracy    <       0.00009034 Ry

     iteration #380     ecut=    60.00 Ry     beta= 0.70
     Davidson diagonalization with overlap
     c_bands:  1 eigenvalues not converged
     c_bands:  1 eigenvalues not converged
     c_bands:  1 eigenvalues not converged
     c_bands:  1 eigenvalues not converged
     c_bands:  1 eigenvalues not converged
     c_bands:  1 eigenvalues not converged
     c_bands:  1 eigenvalues not converged
     c_bands:  1 eigenvalues not converged
     c_bands:  1 eigenvalues not converged
     c_bands:  1 eigenvalues not converged
     c_bands:  1 eigenvalues not converged
     c_bands:  1 eigenvalues not converged
     c_bands:  1 eigenvalues not converged
     c_bands:  1 eigenvalues not converged
     c_bands:  1 eigenvalues not converged
     c_bands:  1 eigenvalues not converged
     c_bands:  1 eigenvalues not converged
     c_bands:  1 eigenvalues not converged
     c_bands:  1 eigenvalues not converged
     c_bands:  1 eigenvalues not converged
     c_bands:  1 eigenvalues not converged
     c_bands:  1 eigenvalues not converged
     c_bands:  1 eigenvalues not converged
     c_bands:  1 eigenvalues not converged
     ethr =  2.02E-13,  avg # of iterations = 17.9

     total cpu time spent up to now is     6383.3 secs

     total energy              =   -1443.51263316 Ry
     estimated scf accuracy    <       0.00007215 Ry

     iteration #381     ecut=    60.00 Ry     beta= 0.70
     Davidson diagonalization with overlap
     c_bands:  3 eigenvalues not converged
     c_bands:  1 eigenvalues not converged
     c_bands:  3 eigenvalues not converged
     c_bands:  2 eigenvalues not converged
     c_bands:  1 eigenvalues not converged
     c_bands:  1 eigenvalues not converged
     c_bands:  1 eigenvalues not converged
     c_bands:  2 eigenvalues not converged
     c_bands:  2 eigenvalues not converged
     c_bands:  1 eigenvalues not converged
     c_bands:  1 eigenvalues not converged
     c_bands:  1 eigenvalues not converged
     c_bands:  1 eigenvalues not converged
     c_bands:  1 eigenvalues not converged
     c_bands:  1 eigenvalues not converged
     c_bands:  2 eigenvalues not converged
     c_bands:  1 eigenvalues not converged
     c_bands:  1 eigenvalues not converged
     c_bands:  1 eigenvalues not converged
     c_bands:  2 eigenvalues not converged
     c_bands:  1 eigenvalues not converged
     c_bands:  1 eigenvalues not converged
     c_bands:  1 eigenvalues not converged
     c_bands:  2 eigenvalues not converged
     c_bands:  1 eigenvalues not converged
     c_bands:  1 eigenvalues not converged
     c_bands:  1 eigenvalues not converged
     c_bands:  1 eigenvalues not converged
     c_bands:  1 eigenvalues not converged
     c_bands:  1 eigenvalues not converged
     c_bands:  1 eigenvalues not converged
     c_bands:  1 eigenvalues not converged
     c_bands:  2 eigenvalues not converged
     ethr =  2.02E-13,  avg # of iterations = 19.5

     total cpu time spent up to now is     6409.0 secs

     total energy              =   -1443.51264592 Ry
     estimated scf accuracy    <       0.00043054 Ry

     iteration #382     ecut=    60.00 Ry     beta= 0.70
     Davidson diagonalization with overlap
     c_bands:  1 eigenvalues not converged
     c_bands:  1 eigenvalues not converged
     c_bands:  1 eigenvalues not converged
     c_bands:  1 eigenvalues not converged
     ethr =  2.02E-13,  avg # of iterations = 17.2

     total cpu time spent up to now is     6431.1 secs

     total energy              =   -1443.51264262 Ry
     estimated scf accuracy    <       0.00037746 Ry

     iteration #383     ecut=    60.00 Ry     beta= 0.70
     Davidson diagonalization with overlap
     c_bands:  1 eigenvalues not converged
     c_bands:  1 eigenvalues not converged
     c_bands:  1 eigenvalues not converged
     c_bands:  1 eigenvalues not converged
     c_bands:  1 eigenvalues not converged
     ethr =  2.02E-13,  avg # of iterations = 16.9

     total cpu time spent up to now is     6454.3 secs

     total energy              =   -1443.51263829 Ry
     estimated scf accuracy    <       0.00028490 Ry

     iteration #384     ecut=    60.00 Ry     beta= 0.70
     Davidson diagonalization with overlap
     c_bands:  1 eigenvalues not converged
     c_bands:  1 eigenvalues not converged
     ethr =  2.02E-13,  avg # of iterations = 16.5

     total cpu time spent up to now is     6479.1 secs

     total energy              =   -1443.51263853 Ry
     estimated scf accuracy    <       0.00016813 Ry

     iteration #385     ecut=    60.00 Ry     beta= 0.70
     Davidson diagonalization with overlap
     ethr =  2.02E-13,  avg # of iterations =  7.4

     total cpu time spent up to now is     6491.9 secs

     total energy              =   -1443.51263849 Ry
     estimated scf accuracy    <       0.00016266 Ry

     iteration #386     ecut=    60.00 Ry     beta= 0.70
     Davidson diagonalization with overlap
     ethr =  2.02E-13,  avg # of iterations =  6.9

     total cpu time spent up to now is     6500.8 secs

     total energy              =   -1443.51263854 Ry
     estimated scf accuracy    <       0.00016146 Ry

     iteration #387     ecut=    60.00 Ry     beta= 0.70
     Davidson diagonalization with overlap
     ethr =  2.02E-13,  avg # of iterations =  6.9

     total cpu time spent up to now is     6509.9 secs

     total energy              =   -1443.51263828 Ry
     estimated scf accuracy    <       0.00016278 Ry

     iteration #388     ecut=    60.00 Ry     beta= 0.70
     Davidson diagonalization with overlap
     ethr =  2.02E-13,  avg # of iterations =  7.4

     total cpu time spent up to now is     6524.0 secs

     total energy              =   -1443.51263749 Ry
     estimated scf accuracy    <       0.00015536 Ry

     iteration #389     ecut=    60.00 Ry     beta= 0.70
     Davidson diagonalization with overlap
     c_bands:  1 eigenvalues not converged
     c_bands:  1 eigenvalues not converged
     c_bands:  1 eigenvalues not converged
     c_bands:  1 eigenvalues not converged
     c_bands:  1 eigenvalues not converged
     c_bands:  1 eigenvalues not converged
     c_bands:  1 eigenvalues not converged
     c_bands:  1 eigenvalues not converged
     c_bands:  1 eigenvalues not converged
     c_bands:  1 eigenvalues not converged
     c_bands:  1 eigenvalues not converged
     c_bands:  1 eigenvalues not converged
     c_bands:  1 eigenvalues not converged
     c_bands:  1 eigenvalues not converged
     c_bands:  1 eigenvalues not converged
     c_bands:  1 eigenvalues not converged
     c_bands:  1 eigenvalues not converged
     c_bands:  1 eigenvalues not converged
     c_bands:  1 eigenvalues not converged
     c_bands:  1 eigenvalues not converged
     c_bands:  1 eigenvalues not converged
     c_bands:  1 eigenvalues not converged
     c_bands:  1 eigenvalues not converged
     ethr =  2.02E-13,  avg # of iterations = 18.1

     total cpu time spent up to now is     6541.9 secs

     total energy              =   -1443.51262910 Ry
     estimated scf accuracy    <       0.00013415 Ry

     iteration #390     ecut=    60.00 Ry     beta= 0.70
     Davidson diagonalization with overlap
     c_bands:  1 eigenvalues not converged
     c_bands:  3 eigenvalues not converged
     c_bands:  1 eigenvalues not converged
     c_bands:  1 eigenvalues not converged
     c_bands:  2 eigenvalues not converged
     c_bands:  1 eigenvalues not converged
     c_bands:  1 eigenvalues not converged
     c_bands:  1 eigenvalues not converged
     c_bands:  1 eigenvalues not converged
     c_bands:  1 eigenvalues not converged
     c_bands:  1 eigenvalues not converged
     c_bands:  1 eigenvalues not converged
     c_bands:  2 eigenvalues not converged
     c_bands:  1 eigenvalues not converged
     c_bands:  1 eigenvalues not converged
     c_bands:  1 eigenvalues not converged
     c_bands:  2 eigenvalues not converged
     c_bands:  1 eigenvalues not converged
     c_bands:  1 eigenvalues not converged
     c_bands:  1 eigenvalues not converged
     c_bands:  1 eigenvalues not converged
     c_bands:  1 eigenvalues not converged
     c_bands:  1 eigenvalues not converged
     c_bands:  1 eigenvalues not converged
     c_bands:  1 eigenvalues not converged
     c_bands:  1 eigenvalues not converged
     c_bands:  1 eigenvalues not converged
     c_bands:  1 eigenvalues not converged
     c_bands:  1 eigenvalues not converged
     c_bands:  1 eigenvalues not converged
     c_bands:  1 eigenvalues not converged
     c_bands:  1 eigenvalues not converged
     c_bands:  1 eigenvalues not converged
     c_bands:  1 eigenvalues not converged
     c_bands:  1 eigenvalues not converged
     ethr =  2.02E-13,  avg # of iterations = 20.0

     total cpu time spent up to now is     6568.0 secs

     total energy              =   -1443.51263969 Ry
     estimated scf accuracy    <       0.00044363 Ry

     iteration #391     ecut=    60.00 Ry     beta= 0.70
     Davidson diagonalization with overlap
     ethr =  2.02E-13,  avg # of iterations =  8.0

     total cpu time spent up to now is     6580.9 secs

     total energy              =   -1443.51264476 Ry
     estimated scf accuracy    <       0.00044518 Ry

     iteration #392     ecut=    60.00 Ry     beta= 0.70
     Davidson diagonalization with overlap
     c_bands:  1 eigenvalues not converged
     c_bands:  1 eigenvalues not converged
     ethr =  2.02E-13,  avg # of iterations = 16.6

     total cpu time spent up to now is     6605.8 secs

     total energy              =   -1443.51264444 Ry
     estimated scf accuracy    <       0.00028802 Ry

     iteration #393     ecut=    60.00 Ry     beta= 0.70
     Davidson diagonalization with overlap
     c_bands:  1 eigenvalues not converged
     c_bands:  1 eigenvalues not converged
     c_bands:  1 eigenvalues not converged
     c_bands:  1 eigenvalues not converged
     c_bands:  1 eigenvalues not converged
     c_bands:  1 eigenvalues not converged
     c_bands:  1 eigenvalues not converged
     c_bands:  1 eigenvalues not converged
     c_bands:  1 eigenvalues not converged
     c_bands:  1 eigenvalues not converged
     c_bands:  1 eigenvalues not converged
     c_bands:  1 eigenvalues not converged
     c_bands:  1 eigenvalues not converged
     c_bands:  1 eigenvalues not converged
     c_bands:  1 eigenvalues not converged
     c_bands:  1 eigenvalues not converged
     c_bands:  1 eigenvalues not converged
     ethr =  2.02E-13,  avg # of iterations = 14.1

     total cpu time spent up to now is     6621.3 secs

     total energy              =   -1443.51264218 Ry
     estimated scf accuracy    <       0.00026616 Ry

     iteration #394     ecut=    60.00 Ry     beta= 0.70
     Davidson diagonalization with overlap
     c_bands:  1 eigenvalues not converged
     c_bands:  1 eigenvalues not converged
     c_bands:  1 eigenvalues not converged
     c_bands:  1 eigenvalues not converged
     c_bands:  1 eigenvalues not converged
     c_bands:  1 eigenvalues not converged
     c_bands:  1 eigenvalues not converged
     c_bands:  1 eigenvalues not converged
     ethr =  2.02E-13,  avg # of iterations = 17.5

     total cpu time spent up to now is     6643.2 secs

     total energy              =   -1443.51264034 Ry
     estimated scf accuracy    <       0.00020369 Ry

     iteration #395     ecut=    60.00 Ry     beta= 0.70
     Davidson diagonalization with overlap
     c_bands:  1 eigenvalues not converged
     c_bands:  1 eigenvalues not converged
     c_bands:  1 eigenvalues not converged
     c_bands:  1 eigenvalues not converged
     c_bands:  1 eigenvalues not converged
     c_bands:  1 eigenvalues not converged
     c_bands:  1 eigenvalues not converged
     c_bands:  1 eigenvalues not converged
     c_bands:  1 eigenvalues not converged
     ethr =  2.02E-13,  avg # of iterations = 17.5

     total cpu time spent up to now is     6665.1 secs

     total energy              =   -1443.51263890 Ry
     estimated scf accuracy    <       0.00015068 Ry

     iteration #396     ecut=    60.00 Ry     beta= 0.70
     Davidson diagonalization with overlap
     c_bands:  1 eigenvalues not converged
     c_bands:  1 eigenvalues not converged
     c_bands:  1 eigenvalues not converged
     c_bands:  1 eigenvalues not converged
     c_bands:  1 eigenvalues not converged
     c_bands:  1 eigenvalues not converged
     c_bands:  1 eigenvalues not converged
     c_bands:  1 eigenvalues not converged
     c_bands:  1 eigenvalues not converged
     c_bands:  1 eigenvalues not converged
     c_bands:  1 eigenvalues not converged
     c_bands:  1 eigenvalues not converged
     c_bands:  1 eigenvalues not converged
     ethr =  2.02E-13,  avg # of iterations = 17.7

     total cpu time spent up to now is     6686.6 secs

     total energy              =   -1443.51263853 Ry
     estimated scf accuracy    <       0.00010873 Ry

     iteration #397     ecut=    60.00 Ry     beta= 0.70
     Davidson diagonalization with overlap
     c_bands:  1 eigenvalues not converged
     c_bands:  1 eigenvalues not converged
     c_bands:  1 eigenvalues not converged
     c_bands:  1 eigenvalues not converged
     c_bands:  1 eigenvalues not converged
     ethr =  2.02E-13,  avg # of iterations = 10.5

     total cpu time spent up to now is     6700.9 secs

     total energy              =   -1443.51263859 Ry
     estimated scf accuracy    <       0.00009613 Ry

     iteration #398     ecut=    60.00 Ry     beta= 0.70
     Davidson diagonalization with overlap
     ethr =  2.02E-13,  avg # of iterations =  6.7

     total cpu time spent up to now is     6711.0 secs

     total energy              =   -1443.51263248 Ry
     estimated scf accuracy    <       0.00009700 Ry

     iteration #399     ecut=    60.00 Ry     beta= 0.70
     Davidson diagonalization with overlap
     c_bands:  1 eigenvalues not converged
     c_bands:  3 eigenvalues not converged
     c_bands:  1 eigenvalues not converged
     c_bands:  2 eigenvalues not converged
     c_bands:  1 eigenvalues not converged
     c_bands:  1 eigenvalues not converged
     c_bands:  1 eigenvalues not converged
     c_bands:  1 eigenvalues not converged
     c_bands:  1 eigenvalues not converged
     c_bands:  1 eigenvalues not converged
     c_bands:  1 eigenvalues not converged
     c_bands:  2 eigenvalues not converged
     c_bands:  1 eigenvalues not converged
     c_bands:  1 eigenvalues not converged
     c_bands:  1 eigenvalues not converged
     c_bands:  2 eigenvalues not converged
     c_bands:  1 eigenvalues not converged
     c_bands:  1 eigenvalues not converged
     c_bands:  1 eigenvalues not converged
     c_bands:  3 eigenvalues not converged
     c_bands:  1 eigenvalues not converged
     c_bands:  1 eigenvalues not converged
     c_bands:  2 eigenvalues not converged
     c_bands:  1 eigenvalues not converged
     c_bands:  1 eigenvalues not converged
     c_bands:  1 eigenvalues not converged
     c_bands:  1 eigenvalues not converged
     c_bands:  1 eigenvalues not converged
     c_bands:  1 eigenvalues not converged
     c_bands:  1 eigenvalues not converged
     c_bands:  1 eigenvalues not converged
     c_bands:  2 eigenvalues not converged
     c_bands:  1 eigenvalues not converged
     ethr =  2.02E-13,  avg # of iterations = 19.8

     total cpu time spent up to now is     6736.9 secs

     total energy              =   -1443.51263520 Ry
     estimated scf accuracy    <       0.00000004 Ry

     iteration #400     ecut=    60.00 Ry     beta= 0.70
     Davidson diagonalization with overlap
     ethr =  2.02E-13,  avg # of iterations =  7.4

     total cpu time spent up to now is     6746.9 secs

     total energy              =   -1443.51263522 Ry
     estimated scf accuracy    <       0.00000001 Ry

     End of self-consistent calculation

     convergence NOT achieved after 400 iterations: stopping

     Writing config to output data dir ./K4ZrSnO6.save/

     init_run     :     22.11s CPU     22.33s WALL (       1 calls)
     electrons    :   6528.28s CPU   6665.12s WALL (       2 calls)
     update_pot   :     20.71s CPU     20.75s WALL (       1 calls)
     forces       :     12.15s CPU     12.23s WALL (       1 calls)
     stress       :     24.35s CPU     24.48s WALL (       1 calls)

     Called by init_run:
     wfcinit      :      4.53s CPU      4.64s WALL (       1 calls)
     potinit      :      5.56s CPU      5.58s WALL (       1 calls)
     hinit0       :     11.66s CPU     11.70s WALL (       1 calls)

     Called by electrons:
     c_bands      :   5577.01s CPU   5670.80s WALL (     523 calls)
     sum_band     :    518.05s CPU    543.38s WALL (     523 calls)
     v_of_rho     :     21.78s CPU     22.45s WALL (     525 calls)
     newd         :    145.31s CPU    160.26s WALL (     525 calls)
     PAW_pot      :    262.40s CPU    263.55s WALL (     526 calls)
     mix_rho      :      3.88s CPU      4.06s WALL (     523 calls)

     Called by c_bands:
     init_us_2    :     45.23s CPU     46.60s WALL (   40950 calls)
     init_us_2:cp :     45.05s CPU     46.51s WALL (   40950 calls)
     cegterg      :   5431.41s CPU   5522.50s WALL (   20397 calls)

     Called by *egterg:
     cdiaghg      :   1921.19s CPU   1945.69s WALL (  189540 calls)
     h_psi        :   2189.42s CPU   2238.13s WALL (  189618 calls)
     s_psi        :    247.61s CPU    249.98s WALL (  189618 calls)
     g_psi        :     49.22s CPU     49.60s WALL (  169182 calls)

     Called by h_psi:
     h_psi:calbec :    287.05s CPU    296.50s WALL (  189618 calls)
     vloc_psi     :   1640.80s CPU   1677.75s WALL (  189618 calls)
     add_vuspsi   :    249.20s CPU    251.59s WALL (  189618 calls)

     General routines
     calbec       :    353.42s CPU    365.80s WALL (  210249 calls)
     fft          :      8.96s CPU      9.90s WALL (    6849 calls)
     ffts         :      0.70s CPU      0.73s WALL (    1048 calls)
     fftw         :   1644.68s CPU   1681.15s WALL ( 8243707 calls)
     interpolate  :      1.31s CPU      1.39s WALL (     525 calls)
     davcio       :      0.00s CPU      0.82s WALL (      57 calls)

     Parallel routines

     PWSCF        :      1h50m CPU      1h52m WALL


   This run was terminated on:   4:18:51   1Dec2025            

=------------------------------------------------------------------------------=
   JOB DONE.
=------------------------------------------------------------------------------=
STOP 255
STOP 255
STOP 255
STOP 255
STOP 255
STOP 255
STOP 255
STOP 255
STOP 255
STOP 255
STOP 255
STOP 255
STOP 255
STOP 255
STOP 255
STOP 255
--------------------------------------------------------------------------
Primary job  terminated normally, but 1 process returned
a non-zero exit code. Per user-direction, the job has been aborted.
--------------------------------------------------------------------------
--------------------------------------------------------------------------
mpirun detected that one or more processes exited with non-zero status, thus causing
the job to be terminated. The first process to do so was:

  Process name: [[17793,1],1]
  Exit code:    255
--------------------------------------------------------------------------
