
     Program PWSCF v.7.1 starts on  1Dec2025 at 14:47:42 

     This program is part of the open-source Quantum ESPRESSO suite
     for quantum simulation of materials; please cite
         "P. Giannozzi et al., J. Phys.:Condens. Matter 21 395502 (2009);
         "P. Giannozzi et al., J. Phys.:Condens. Matter 29 465901 (2017);
         "P. Giannozzi et al., J. Chem. Phys. 152 154105 (2020);
          URL http://www.quantum-espresso.org", 
     in publications or presentations arising from this work. More details at
     http://www.quantum-espresso.org/quote

     Parallel version (MPI & OpenMP), running on      16 processor cores
     Number of MPI processes:                16
     Threads/MPI process:                     1

     MPI processes distributed on     1 nodes
     111018 MiB available memory on the printing compute node when the environment starts

     Waiting for input...
     Reading input from standard input

     Current dimensions of program PWSCF are:
     Max number of different atomic species (ntypx) = 10
     Max number of k-points (npk) =  40000
     Max angular momentum in pseudopotentials (lmaxx) =  4
     Message from routine read_pp_mesh:
     mismatch in mesh size, discarding the one in header
     Message from routine read_pp_mesh:
     mismatch in mesh size, discarding the one in header
     Message from routine read_pp_mesh:
     mismatch in mesh size, discarding the one in header
     Message from routine read_pp_mesh:
     mismatch in mesh size, discarding the one in header
     Message from routine read_pp_mesh:
     mismatch in mesh size, discarding the one in header
     Message from routine setup:
     using ibrav=0 with symmetry is DISCOURAGED, use correct ibrav instead

     R & G space division:  proc/nbgrp/npool/nimage =      16
     Subspace diagonalization in iterative solution of the eigenvalue problem:
     a serial algorithm will be used


     Parallelization info
     --------------------
     sticks:   dense  smooth     PW     G-vecs:    dense   smooth      PW
     Min         473     236     64                29515    10437    1483
     Max         474     237     65                29517    10439    1485
     Sum        7569    3781   1029               472259   166997   23735

     Using Slab Decomposition



     bravais-lattice index     =            0
     lattice parameter (alat)  =      13.5527  a.u.
     unit-cell volume          =    2659.4746 (a.u.)^3
     number of atoms/cell      =           12
     number of atomic types    =            5
     number of electrons       =        98.00
     number of Kohn-Sham states=           49
     kinetic-energy cutoff     =      60.0000  Ry
     charge density cutoff     =     480.0000  Ry
     scf convergence threshold =      1.0E-10
     mixing beta               =       0.7000
     number of iterations used =            8  plain     mixing
     energy convergence thresh.=      1.0E-04
     force convergence thresh. =      1.0E-05
     press convergence thresh. =      5.0E-01
     Exchange-correlation= SLA PW PBX PBC
                           (   1   4   3   4   0   0   0)
     nstep                     =          300


     celldm(1)=  13.552683  celldm(2)=   0.000000  celldm(3)=   0.000000
     celldm(4)=   0.000000  celldm(5)=   0.000000  celldm(6)=   0.000000

     crystal axes: (cart. coord. in units of alat)
               a(1) = (   0.997747  -0.067083  -0.001236 )  
               a(2) = (  -0.067100   1.082233  -0.067100 )  
               a(3) = (  -0.001236  -0.067083   0.997747 )  

     reciprocal axes: (cart. coord. in units 2 pi/alat)
               b(1) = (  1.006484  0.062743  0.005465 )  
               b(2) = (  0.062726  0.931794  0.062726 )  
               b(3) = (  0.005465  0.062743  1.006484 )  


     PseudoPot. # 1 for Na read from file:
     ./Na.upf
     MD5 check sum: b8e483bdca8edababda73ba53cc0c4c9
     Pseudo is Projector augmented-wave + core cor, Zval =  9.0
     Generated using ATOMPAW code
     Shape of augmentation charge: SINC**2
     Using radial grid of 2342 points,  4 beta functions with: 
                l(1) =   0
                l(2) =   0
                l(3) =   1
                l(4) =   1
     Q(r) pseudized with 0 coefficients 


     PseudoPot. # 2 for K  read from file:
     ./K.upf
     MD5 check sum: 9356cfae17991a8ac93a0af773ad5d28
     Pseudo is Projector augmented-wave + core cor, Zval =  9.0
     Generated using ATOMPAW code
     Shape of augmentation charge: SINC**2
     Using radial grid of 2342 points,  5 beta functions with: 
                l(1) =   0
                l(2) =   0
                l(3) =   1
                l(4) =   1
                l(5) =   2
     Q(r) pseudized with 0 coefficients 


     PseudoPot. # 3 for Zr read from file:
     ./Zr.upf
     MD5 check sum: 10be9e9715c592225794718718b87d8f
     Pseudo is Projector augmented-wave + core cor, Zval = 12.0
     Generated using ATOMPAW code
     Shape of augmentation charge: BESSEL
     Using radial grid of 2342 points,  6 beta functions with: 
                l(1) =   0
                l(2) =   0
                l(3) =   1
                l(4) =   1
                l(5) =   2
                l(6) =   2
     Q(r) pseudized with 0 coefficients 


     PseudoPot. # 4 for Sn read from file:
     ./Sn.upf
     MD5 check sum: f8d5c2bd65c7f969f3af92fc3a9f2821
     Pseudo is Projector augmented-wave + core cor, Zval = 14.0
     Generated using ATOMPAW code
     Shape of augmentation charge: BESSEL
     Using radial grid of 2342 points,  6 beta functions with: 
                l(1) =   0
                l(2) =   0
                l(3) =   1
                l(4) =   1
                l(5) =   2
                l(6) =   2
     Q(r) pseudized with 0 coefficients 


     PseudoPot. # 5 for O  read from file:
     ./O.upf
     MD5 check sum: 45fbb1c0d1f8837f1e386a2947d3aa26
     Pseudo is Projector augmented-wave + core cor, Zval =  6.0
     Generated using ATOMPAW code
     Shape of augmentation charge: SINC**2
     Using radial grid of 2342 points,  4 beta functions with: 
                l(1) =   0
                l(2) =   0
                l(3) =   1
                l(4) =   1
     Q(r) pseudized with 0 coefficients 


     atomic species   valence    mass     pseudopotential
        Na             9.00    22.96000     Na( 1.00)
        K              9.00    39.09800     K ( 1.00)
        Zr            12.00    91.22400     Zr( 1.00)
        Sn            14.00   118.71000     Sn( 1.00)
        O              6.00    15.99900     O ( 1.00)

      2 Sym. Ops. (no inversion) found



   Cartesian axes

     site n.     atom                  positions (alat units)
         1           K   tau(   1) = (  -0.0161912  -0.0028784  -0.0161912  )
         2           Na  tau(   2) = (   0.4610910   0.5325431  -0.0756181  )
         3           K   tau(   3) = (   0.5225956  -0.1009663   0.5225956  )
         4           Na  tau(   4) = (  -0.0756181   0.5325431   0.4610910  )
         5           Zr  tau(   5) = (   0.2288883   0.2304397   0.2288883  )
         6           Sn  tau(   6) = (   0.7190476   0.7060863   0.7190476  )
         7           O   tau(   7) = (   0.3704662   0.0721005   0.0684580  )
         8           O   tau(   8) = (   0.6279025  -0.1461594  -0.0756239  )
         9           O   tau(   9) = (   0.0757470   0.3854666   0.0757470  )
        10           O   tau(  10) = (  -0.1185330   0.7090852  -0.1185330  )
        11           O   tau(  11) = (   0.0684580   0.0721005   0.3704662  )
        12           O   tau(  12) = (  -0.0756239  -0.1461594   0.6279025  )

     number of k points=    39
                       cart. coord. in units 2pi/alat
        k(    1) = (   0.0000000   0.0000000   0.0000000), wk =   0.0160000
        k(    2) = (   0.0010931   0.0125486   0.2012967), wk =   0.0640000
        k(    3) = (   0.0021862   0.0250971   0.4025935), wk =   0.0640000
        k(    4) = (   0.0125453   0.1863588   0.0125453), wk =   0.0320000
        k(    5) = (   0.0136383   0.1989073   0.2138420), wk =   0.0640000
        k(    6) = (   0.0147314   0.2114559   0.4151387), wk =   0.0640000
        k(    7) = (   0.0103591   0.1612617  -0.3900482), wk =   0.0640000
        k(    8) = (   0.0114522   0.1738102  -0.1887515), wk =   0.0640000
        k(    9) = (   0.0250905   0.3727175   0.0250905), wk =   0.0320000
        k(   10) = (   0.0261836   0.3852661   0.2263872), wk =   0.0640000
        k(   11) = (   0.0272767   0.3978146   0.4276840), wk =   0.0640000
        k(   12) = (   0.0229043   0.3476204  -0.3775030), wk =   0.0640000
        k(   13) = (   0.0239974   0.3601690  -0.1762062), wk =   0.0640000
        k(   14) = (   0.2023898   0.0250971   0.2023898), wk =   0.0320000
        k(   15) = (   0.2034829   0.0376457   0.4036866), wk =   0.0640000
        k(   16) = (   0.1991106  -0.0125486  -0.4015004), wk =   0.0640000
        k(   17) = (   0.2002037   0.0000000  -0.2002037), wk =   0.0320000
        k(   18) = (   0.2149351   0.2114559   0.2149351), wk =   0.0320000
        k(   19) = (   0.2160282   0.2240044   0.4162318), wk =   0.0640000
        k(   20) = (   0.2116558   0.1738102  -0.3889551), wk =   0.0640000
        k(   21) = (   0.2127489   0.1863588  -0.1876584), wk =   0.0640000
        k(   22) = (   0.2274803   0.3978146   0.2274803), wk =   0.0320000
        k(   23) = (   0.2285734   0.4103632   0.4287771), wk =   0.0640000
        k(   24) = (   0.2242011   0.3601690  -0.3764099), wk =   0.0640000
        k(   25) = (   0.2252942   0.3727175  -0.1751131), wk =   0.0640000
        k(   26) = (   0.1772993  -0.3476204   0.1772993), wk =   0.0320000
        k(   27) = (   0.1783924  -0.3350719   0.3785961), wk =   0.0640000
        k(   28) = (   0.1740201  -0.3852661  -0.4265909), wk =   0.0640000
        k(   29) = (   0.1898446  -0.1612617   0.1898446), wk =   0.0320000
        k(   30) = (   0.1909377  -0.1487131   0.3911413), wk =   0.0640000
        k(   31) = (   0.1865653  -0.1989073  -0.4140456), wk =   0.0640000
        k(   32) = (   0.4047796   0.0501942   0.4047796), wk =   0.0320000
        k(   33) = (   0.4004073   0.0000000  -0.4004073), wk =   0.0320000
        k(   34) = (   0.4173249   0.2365530   0.4173249), wk =   0.0320000
        k(   35) = (   0.4129526   0.1863588  -0.3878621), wk =   0.0640000
        k(   36) = (   0.4298701   0.4229117   0.4298701), wk =   0.0320000
        k(   37) = (   0.4254978   0.3727175  -0.3753168), wk =   0.0640000
        k(   38) = (   0.3796891  -0.3225233   0.3796891), wk =   0.0320000
        k(   39) = (   0.3922344  -0.1361646   0.3922344), wk =   0.0320000

     Dense  grid:   472259 G-vectors     FFT dimensions: (  96, 108,  96)

     Smooth grid:   166997 G-vectors     FFT dimensions: (  72,  75,  72)

     Estimated max dynamical RAM per process >     170.32 MB

     Estimated total dynamical RAM >       2.66 GB

     Initial potential from superposition of free atoms

     starting charge      97.9418, renormalised to      98.0000
     Starting wfcs are  126 randomized atomic wfcs
     Checking if some PAW data can be deallocated... 

     total cpu time spent up to now is       33.0 secs

     per-process dynamical memory:   116.8 Mb

     Self-consistent Calculation

     iteration #  1     ecut=    60.00 Ry     beta= 0.70
     Davidson diagonalization with overlap
     ethr =  1.00E-02,  avg # of iterations =  1.0

     total cpu time spent up to now is       42.3 secs

     total energy              =   -1440.08182882 Ry
     estimated scf accuracy    <       6.39576000 Ry

     iteration #  2     ecut=    60.00 Ry     beta= 0.70
     Davidson diagonalization with overlap
     ethr =  6.53E-03,  avg # of iterations =  6.4

     total cpu time spent up to now is       61.4 secs

     total energy              =   -1434.44463352 Ry
     estimated scf accuracy    <      64.46654364 Ry

     iteration #  3     ecut=    60.00 Ry     beta= 0.70
     Davidson diagonalization with overlap
     ethr =  6.53E-03,  avg # of iterations =  6.4

     total cpu time spent up to now is       79.1 secs

     total energy              =   -1443.66042669 Ry
     estimated scf accuracy    <       1.39750261 Ry

     iteration #  4     ecut=    60.00 Ry     beta= 0.70
     Davidson diagonalization with overlap
     ethr =  1.43E-03,  avg # of iterations =  4.7

     total cpu time spent up to now is       91.7 secs

     total energy              =   -1443.81723990 Ry
     estimated scf accuracy    <       1.00108494 Ry

     iteration #  5     ecut=    60.00 Ry     beta= 0.70
     Davidson diagonalization with overlap
     ethr =  1.02E-03,  avg # of iterations =  1.5

     total cpu time spent up to now is      101.2 secs

     total energy              =   -1443.74597660 Ry
     estimated scf accuracy    <       0.69967462 Ry

     iteration #  6     ecut=    60.00 Ry     beta= 0.70
     Davidson diagonalization with overlap
     ethr =  7.14E-04,  avg # of iterations =  1.0

     total cpu time spent up to now is      110.5 secs

     total energy              =   -1443.59789602 Ry
     estimated scf accuracy    <       0.46377179 Ry

     iteration #  7     ecut=    60.00 Ry     beta= 0.70
     Davidson diagonalization with overlap
     ethr =  4.73E-04,  avg # of iterations =  5.5

     total cpu time spent up to now is      125.0 secs

     total energy              =   -1443.78462793 Ry
     estimated scf accuracy    <       1.38297553 Ry

     iteration #  8     ecut=    60.00 Ry     beta= 0.70
     Davidson diagonalization with overlap
     ethr =  4.73E-04,  avg # of iterations =  1.0

     total cpu time spent up to now is      134.2 secs

     total energy              =   -1443.64559147 Ry
     estimated scf accuracy    <       1.46022706 Ry

     iteration #  9     ecut=    60.00 Ry     beta= 0.70
     Davidson diagonalization with overlap
     ethr =  4.73E-04,  avg # of iterations =  2.8

     total cpu time spent up to now is      144.4 secs

     total energy              =   -1443.56800605 Ry
     estimated scf accuracy    <       1.04619220 Ry

     iteration # 10     ecut=    60.00 Ry     beta= 0.70
     Davidson diagonalization with overlap
     ethr =  4.73E-04,  avg # of iterations =  4.6

     total cpu time spent up to now is      156.3 secs

     total energy              =   -1443.67784328 Ry
     estimated scf accuracy    <       0.04976682 Ry

     iteration # 11     ecut=    60.00 Ry     beta= 0.70
     Davidson diagonalization with overlap
     ethr =  5.08E-05,  avg # of iterations =  4.1

     total cpu time spent up to now is      169.3 secs

     total energy              =   -1443.71309182 Ry
     estimated scf accuracy    <       0.15389299 Ry

     iteration # 12     ecut=    60.00 Ry     beta= 0.70
     Davidson diagonalization with overlap
     ethr =  5.08E-05,  avg # of iterations =  1.0

     total cpu time spent up to now is      178.6 secs

     total energy              =   -1443.70285841 Ry
     estimated scf accuracy    <       0.13993572 Ry

     iteration # 13     ecut=    60.00 Ry     beta= 0.70
     Davidson diagonalization with overlap
     ethr =  5.08E-05,  avg # of iterations =  3.0

     total cpu time spent up to now is      189.8 secs

     total energy              =   -1443.70406838 Ry
     estimated scf accuracy    <       0.09312070 Ry

     iteration # 14     ecut=    60.00 Ry     beta= 0.70
     Davidson diagonalization with overlap
     ethr =  5.08E-05,  avg # of iterations =  1.0

     total cpu time spent up to now is      199.1 secs

     total energy              =   -1443.70243928 Ry
     estimated scf accuracy    <       0.08933908 Ry

     iteration # 15     ecut=    60.00 Ry     beta= 0.70
     Davidson diagonalization with overlap
     ethr =  5.08E-05,  avg # of iterations =  1.0

     total cpu time spent up to now is      208.3 secs

     total energy              =   -1443.69795885 Ry
     estimated scf accuracy    <       0.08464030 Ry

     iteration # 16     ecut=    60.00 Ry     beta= 0.70
     Davidson diagonalization with overlap
     ethr =  5.08E-05,  avg # of iterations =  1.0

     total cpu time spent up to now is      217.6 secs

     total energy              =   -1443.69465828 Ry
     estimated scf accuracy    <       0.07272129 Ry

     iteration # 17     ecut=    60.00 Ry     beta= 0.70
     Davidson diagonalization with overlap
     ethr =  5.08E-05,  avg # of iterations =  1.0

     total cpu time spent up to now is      226.9 secs

     total energy              =   -1443.69846071 Ry
     estimated scf accuracy    <       0.06184624 Ry

     iteration # 18     ecut=    60.00 Ry     beta= 0.70
     Davidson diagonalization with overlap
     ethr =  5.08E-05,  avg # of iterations =  1.0

     total cpu time spent up to now is      236.2 secs

     total energy              =   -1443.67182415 Ry
     estimated scf accuracy    <       0.06930969 Ry

     iteration # 19     ecut=    60.00 Ry     beta= 0.70
     Davidson diagonalization with overlap
     ethr =  5.08E-05,  avg # of iterations =  6.1

     total cpu time spent up to now is      250.8 secs

     total energy              =   -1443.68385292 Ry
     estimated scf accuracy    <       0.04520941 Ry

     iteration # 20     ecut=    60.00 Ry     beta= 0.70
     Davidson diagonalization with overlap
     ethr =  4.61E-05,  avg # of iterations =  2.5

     total cpu time spent up to now is      261.0 secs

     total energy              =   -1443.67960735 Ry
     estimated scf accuracy    <       0.05243915 Ry

     iteration # 21     ecut=    60.00 Ry     beta= 0.70
     Davidson diagonalization with overlap
     ethr =  4.61E-05,  avg # of iterations =  3.6

     total cpu time spent up to now is      271.6 secs

     total energy              =   -1443.68031163 Ry
     estimated scf accuracy    <       0.01575461 Ry

     iteration # 22     ecut=    60.00 Ry     beta= 0.70
     Davidson diagonalization with overlap
     ethr =  1.61E-05,  avg # of iterations =  5.3

     total cpu time spent up to now is      284.3 secs

     total energy              =   -1443.68233317 Ry
     estimated scf accuracy    <       0.00779888 Ry

     iteration # 23     ecut=    60.00 Ry     beta= 0.70
     Davidson diagonalization with overlap
     ethr =  7.96E-06,  avg # of iterations =  2.4

     total cpu time spent up to now is      294.5 secs

     total energy              =   -1443.68182417 Ry
     estimated scf accuracy    <       0.00520132 Ry

     iteration # 24     ecut=    60.00 Ry     beta= 0.70
     Davidson diagonalization with overlap
     ethr =  5.31E-06,  avg # of iterations =  6.4

     total cpu time spent up to now is      309.1 secs

     total energy              =   -1443.68674610 Ry
     estimated scf accuracy    <       0.04712316 Ry

     iteration # 25     ecut=    60.00 Ry     beta= 0.70
     Davidson diagonalization with overlap
     ethr =  5.31E-06,  avg # of iterations =  6.8

     total cpu time spent up to now is      322.0 secs

     total energy              =   -1443.68275676 Ry
     estimated scf accuracy    <       0.18085281 Ry

     iteration # 26     ecut=    60.00 Ry     beta= 0.70
     Davidson diagonalization with overlap
     ethr =  5.31E-06,  avg # of iterations =  6.9

     total cpu time spent up to now is      335.1 secs

     total energy              =   -1443.67357871 Ry
     estimated scf accuracy    <       0.04449866 Ry

     iteration # 27     ecut=    60.00 Ry     beta= 0.70
     Davidson diagonalization with overlap
     ethr =  5.31E-06,  avg # of iterations =  6.2

     total cpu time spent up to now is      351.6 secs

     total energy              =   -1443.68483877 Ry
     estimated scf accuracy    <       0.02556142 Ry

     iteration # 28     ecut=    60.00 Ry     beta= 0.70
     Davidson diagonalization with overlap
     ethr =  5.31E-06,  avg # of iterations =  3.2

     total cpu time spent up to now is      362.3 secs

     total energy              =   -1443.68467556 Ry
     estimated scf accuracy    <       0.01750562 Ry

     iteration # 29     ecut=    60.00 Ry     beta= 0.70
     Davidson diagonalization with overlap
     ethr =  5.31E-06,  avg # of iterations =  1.0

     total cpu time spent up to now is      371.6 secs

     total energy              =   -1443.68428703 Ry
     estimated scf accuracy    <       0.01623975 Ry

     iteration # 30     ecut=    60.00 Ry     beta= 0.70
     Davidson diagonalization with overlap
     ethr =  5.31E-06,  avg # of iterations =  1.0

     total cpu time spent up to now is      380.9 secs

     total energy              =   -1443.68427160 Ry
     estimated scf accuracy    <       0.01485497 Ry

     iteration # 31     ecut=    60.00 Ry     beta= 0.70
     Davidson diagonalization with overlap
     ethr =  5.31E-06,  avg # of iterations =  1.0

     total cpu time spent up to now is      390.2 secs

     total energy              =   -1443.68417562 Ry
     estimated scf accuracy    <       0.01459522 Ry

     iteration # 32     ecut=    60.00 Ry     beta= 0.70
     Davidson diagonalization with overlap
     ethr =  5.31E-06,  avg # of iterations =  1.0

     total cpu time spent up to now is      399.4 secs

     total energy              =   -1443.68403310 Ry
     estimated scf accuracy    <       0.01411212 Ry

     iteration # 33     ecut=    60.00 Ry     beta= 0.70
     Davidson diagonalization with overlap
     ethr =  5.31E-06,  avg # of iterations =  1.0

     total cpu time spent up to now is      408.7 secs

     total energy              =   -1443.68231396 Ry
     estimated scf accuracy    <       0.01353829 Ry

     iteration # 34     ecut=    60.00 Ry     beta= 0.70
     Davidson diagonalization with overlap
     ethr =  5.31E-06,  avg # of iterations =  5.1

     total cpu time spent up to now is      420.6 secs

     total energy              =   -1443.68150980 Ry
     estimated scf accuracy    <       0.00523292 Ry

     iteration # 35     ecut=    60.00 Ry     beta= 0.70
     Davidson diagonalization with overlap
     ethr =  5.31E-06,  avg # of iterations =  6.3

     total cpu time spent up to now is      433.4 secs

     total energy              =   -1443.68205921 Ry
     estimated scf accuracy    <       0.00138048 Ry

     iteration # 36     ecut=    60.00 Ry     beta= 0.70
     Davidson diagonalization with overlap
     ethr =  1.41E-06,  avg # of iterations =  3.1

     total cpu time spent up to now is      443.8 secs

     total energy              =   -1443.68205094 Ry
     estimated scf accuracy    <       0.00079705 Ry

     iteration # 37     ecut=    60.00 Ry     beta= 0.70
     Davidson diagonalization with overlap
     ethr =  8.13E-07,  avg # of iterations =  2.2

     total cpu time spent up to now is      453.7 secs

     total energy              =   -1443.68206704 Ry
     estimated scf accuracy    <       0.00016758 Ry

     iteration # 38     ecut=    60.00 Ry     beta= 0.70
     Davidson diagonalization with overlap
     ethr =  1.71E-07,  avg # of iterations =  6.3

     total cpu time spent up to now is      467.5 secs

     total energy              =   -1443.68209812 Ry
     estimated scf accuracy    <       0.00047742 Ry

     iteration # 39     ecut=    60.00 Ry     beta= 0.70
     Davidson diagonalization with overlap
     ethr =  1.71E-07,  avg # of iterations =  4.0

     total cpu time spent up to now is      478.8 secs

     total energy              =   -1443.68207718 Ry
     estimated scf accuracy    <       0.00013004 Ry

     iteration # 40     ecut=    60.00 Ry     beta= 0.70
     Davidson diagonalization with overlap
     ethr =  1.33E-07,  avg # of iterations =  5.8

     total cpu time spent up to now is      492.4 secs

     total energy              =   -1443.68208804 Ry
     estimated scf accuracy    <       0.00057027 Ry

     iteration # 41     ecut=    60.00 Ry     beta= 0.70
     Davidson diagonalization with overlap
     ethr =  1.33E-07,  avg # of iterations =  5.5

     total cpu time spent up to now is      504.5 secs

     total energy              =   -1443.68210119 Ry
     estimated scf accuracy    <       0.00007676 Ry

     iteration # 42     ecut=    60.00 Ry     beta= 0.70
     Davidson diagonalization with overlap
     ethr =  7.83E-08,  avg # of iterations =  1.0

     total cpu time spent up to now is      513.8 secs

     total energy              =   -1443.68209714 Ry
     estimated scf accuracy    <       0.00006478 Ry

     iteration # 43     ecut=    60.00 Ry     beta= 0.70
     Davidson diagonalization with overlap
     ethr =  6.61E-08,  avg # of iterations =  1.4

     total cpu time spent up to now is      523.2 secs

     total energy              =   -1443.68209709 Ry
     estimated scf accuracy    <       0.00001867 Ry

     iteration # 44     ecut=    60.00 Ry     beta= 0.70
     Davidson diagonalization with overlap
     ethr =  1.91E-08,  avg # of iterations =  6.3

     total cpu time spent up to now is      536.3 secs

     total energy              =   -1443.68211412 Ry
     estimated scf accuracy    <       0.00019760 Ry

     iteration # 45     ecut=    60.00 Ry     beta= 0.70
     Davidson diagonalization with overlap
     ethr =  1.91E-08,  avg # of iterations =  1.0

     total cpu time spent up to now is      545.6 secs

     total energy              =   -1443.68211107 Ry
     estimated scf accuracy    <       0.00019045 Ry

     iteration # 46     ecut=    60.00 Ry     beta= 0.70
     Davidson diagonalization with overlap
     ethr =  1.91E-08,  avg # of iterations =  1.2

     total cpu time spent up to now is      555.0 secs

     total energy              =   -1443.68211252 Ry
     estimated scf accuracy    <       0.00016015 Ry

     iteration # 47     ecut=    60.00 Ry     beta= 0.70
     Davidson diagonalization with overlap
     ethr =  1.91E-08,  avg # of iterations =  1.0

     total cpu time spent up to now is      564.2 secs

     total energy              =   -1443.68211376 Ry
     estimated scf accuracy    <       0.00016226 Ry

     iteration # 48     ecut=    60.00 Ry     beta= 0.70
     Davidson diagonalization with overlap
     ethr =  1.91E-08,  avg # of iterations =  1.0

     total cpu time spent up to now is      573.4 secs

     total energy              =   -1443.68210935 Ry
     estimated scf accuracy    <       0.00016674 Ry

     iteration # 49     ecut=    60.00 Ry     beta= 0.70
     Davidson diagonalization with overlap
     ethr =  1.91E-08,  avg # of iterations =  1.3

     total cpu time spent up to now is      582.8 secs

     total energy              =   -1443.68209727 Ry
     estimated scf accuracy    <       0.00014294 Ry

     iteration # 50     ecut=    60.00 Ry     beta= 0.70
     Davidson diagonalization with overlap
     ethr =  1.91E-08,  avg # of iterations =  6.3

     total cpu time spent up to now is      596.3 secs

     total energy              =   -1443.68210003 Ry
     estimated scf accuracy    <       0.00009221 Ry

     iteration # 51     ecut=    60.00 Ry     beta= 0.70
     Davidson diagonalization with overlap
     ethr =  1.91E-08,  avg # of iterations =  5.1

     total cpu time spent up to now is      607.7 secs

     total energy              =   -1443.68210164 Ry
     estimated scf accuracy    <       0.00002326 Ry

     iteration # 52     ecut=    60.00 Ry     beta= 0.70
     Davidson diagonalization with overlap
     ethr =  1.91E-08,  avg # of iterations =  1.0

     total cpu time spent up to now is      617.0 secs

     total energy              =   -1443.68210061 Ry
     estimated scf accuracy    <       0.00002272 Ry

     iteration # 53     ecut=    60.00 Ry     beta= 0.70
     Davidson diagonalization with overlap
     ethr =  1.91E-08,  avg # of iterations =  1.0

     total cpu time spent up to now is      626.2 secs

     total energy              =   -1443.68210092 Ry
     estimated scf accuracy    <       0.00001838 Ry

     iteration # 54     ecut=    60.00 Ry     beta= 0.70
     Davidson diagonalization with overlap
     ethr =  1.88E-08,  avg # of iterations =  1.0

     total cpu time spent up to now is      635.5 secs

     total energy              =   -1443.68210094 Ry
     estimated scf accuracy    <       0.00001855 Ry

     iteration # 55     ecut=    60.00 Ry     beta= 0.70
     Davidson diagonalization with overlap
     ethr =  1.88E-08,  avg # of iterations =  1.0

     total cpu time spent up to now is      644.7 secs

     total energy              =   -1443.68210084 Ry
     estimated scf accuracy    <       0.00001795 Ry

     iteration # 56     ecut=    60.00 Ry     beta= 0.70
     Davidson diagonalization with overlap
     ethr =  1.83E-08,  avg # of iterations =  1.0

     total cpu time spent up to now is      654.0 secs

     total energy              =   -1443.68210026 Ry
     estimated scf accuracy    <       0.00001735 Ry

     iteration # 57     ecut=    60.00 Ry     beta= 0.70
     Davidson diagonalization with overlap
     ethr =  1.77E-08,  avg # of iterations =  1.0

     total cpu time spent up to now is      663.3 secs

     total energy              =   -1443.68210019 Ry
     estimated scf accuracy    <       0.00001514 Ry

     iteration # 58     ecut=    60.00 Ry     beta= 0.70
     Davidson diagonalization with overlap
     ethr =  1.55E-08,  avg # of iterations =  1.0

     total cpu time spent up to now is      672.6 secs

     total energy              =   -1443.68209716 Ry
     estimated scf accuracy    <       0.00001448 Ry

     iteration # 59     ecut=    60.00 Ry     beta= 0.70
     Davidson diagonalization with overlap
     ethr =  1.48E-08,  avg # of iterations =  6.5

     total cpu time spent up to now is      685.8 secs

     total energy              =   -1443.68211377 Ry
     estimated scf accuracy    <       0.00026240 Ry

     iteration # 60     ecut=    60.00 Ry     beta= 0.70
     Davidson diagonalization with overlap
     ethr =  1.48E-08,  avg # of iterations =  3.3

     total cpu time spent up to now is      696.1 secs

     total energy              =   -1443.68211219 Ry
     estimated scf accuracy    <       0.00018628 Ry

     iteration # 61     ecut=    60.00 Ry     beta= 0.70
     Davidson diagonalization with overlap
     ethr =  1.48E-08,  avg # of iterations =  1.0

     total cpu time spent up to now is      705.4 secs

     total energy              =   -1443.68211151 Ry
     estimated scf accuracy    <       0.00017725 Ry

     iteration # 62     ecut=    60.00 Ry     beta= 0.70
     Davidson diagonalization with overlap
     ethr =  1.48E-08,  avg # of iterations =  1.0

     total cpu time spent up to now is      714.7 secs

     total energy              =   -1443.68211127 Ry
     estimated scf accuracy    <       0.00017285 Ry

     iteration # 63     ecut=    60.00 Ry     beta= 0.70
     Davidson diagonalization with overlap
     ethr =  1.48E-08,  avg # of iterations =  1.0

     total cpu time spent up to now is      723.9 secs

     total energy              =   -1443.68211193 Ry
     estimated scf accuracy    <       0.00016994 Ry

     iteration # 64     ecut=    60.00 Ry     beta= 0.70
     Davidson diagonalization with overlap
     ethr =  1.48E-08,  avg # of iterations =  1.0

     total cpu time spent up to now is      733.2 secs

     total energy              =   -1443.68211155 Ry
     estimated scf accuracy    <       0.00016974 Ry

     iteration # 65     ecut=    60.00 Ry     beta= 0.70
     Davidson diagonalization with overlap
     ethr =  1.48E-08,  avg # of iterations =  1.0

     total cpu time spent up to now is      742.4 secs

     total energy              =   -1443.68211040 Ry
     estimated scf accuracy    <       0.00016599 Ry

     iteration # 66     ecut=    60.00 Ry     beta= 0.70
     Davidson diagonalization with overlap
     ethr =  1.48E-08,  avg # of iterations =  1.0

     total cpu time spent up to now is      751.7 secs

     total energy              =   -1443.68211107 Ry
     estimated scf accuracy    <       0.00016110 Ry

     iteration # 67     ecut=    60.00 Ry     beta= 0.70
     Davidson diagonalization with overlap
     ethr =  1.48E-08,  avg # of iterations =  1.0

     total cpu time spent up to now is      760.9 secs

     total energy              =   -1443.68205987 Ry
     estimated scf accuracy    <       0.00016134 Ry

     iteration # 68     ecut=    60.00 Ry     beta= 0.70
     Davidson diagonalization with overlap
     ethr =  1.48E-08,  avg # of iterations =  7.4

     total cpu time spent up to now is      779.0 secs

     total energy              =   -1443.68210348 Ry
     estimated scf accuracy    <       0.00151322 Ry

     iteration # 69     ecut=    60.00 Ry     beta= 0.70
     Davidson diagonalization with overlap
     ethr =  1.48E-08,  avg # of iterations =  6.7

     total cpu time spent up to now is      794.7 secs

     total energy              =   -1443.68210327 Ry
     estimated scf accuracy    <       0.00036860 Ry

     iteration # 70     ecut=    60.00 Ry     beta= 0.70
     Davidson diagonalization with overlap
     ethr =  1.48E-08,  avg # of iterations =  6.5

     total cpu time spent up to now is      808.1 secs

     total energy              =   -1443.68210101 Ry
     estimated scf accuracy    <       0.00010684 Ry

     iteration # 71     ecut=    60.00 Ry     beta= 0.70
     Davidson diagonalization with overlap
     ethr =  1.48E-08,  avg # of iterations =  5.5

     total cpu time spent up to now is      819.7 secs

     total energy              =   -1443.68210008 Ry
     estimated scf accuracy    <       0.00003534 Ry

     iteration # 72     ecut=    60.00 Ry     beta= 0.70
     Davidson diagonalization with overlap
     ethr =  1.48E-08,  avg # of iterations =  2.7

     total cpu time spent up to now is      829.9 secs

     total energy              =   -1443.68210070 Ry
     estimated scf accuracy    <       0.00001447 Ry

     iteration # 73     ecut=    60.00 Ry     beta= 0.70
     Davidson diagonalization with overlap
     ethr =  1.48E-08,  avg # of iterations =  1.0

     total cpu time spent up to now is      839.1 secs

     total energy              =   -1443.68210145 Ry
     estimated scf accuracy    <       0.00001375 Ry

     iteration # 74     ecut=    60.00 Ry     beta= 0.70
     Davidson diagonalization with overlap
     ethr =  1.40E-08,  avg # of iterations =  1.0

     total cpu time spent up to now is      848.4 secs

     total energy              =   -1443.68210158 Ry
     estimated scf accuracy    <       0.00001488 Ry

     iteration # 75     ecut=    60.00 Ry     beta= 0.70
     Davidson diagonalization with overlap
     ethr =  1.40E-08,  avg # of iterations =  1.0

     total cpu time spent up to now is      857.6 secs

     total energy              =   -1443.68210165 Ry
     estimated scf accuracy    <       0.00001487 Ry

     iteration # 76     ecut=    60.00 Ry     beta= 0.70
     Davidson diagonalization with overlap
     ethr =  1.40E-08,  avg # of iterations =  1.0

     total cpu time spent up to now is      866.9 secs

     total energy              =   -1443.68210027 Ry
     estimated scf accuracy    <       0.00001488 Ry

     iteration # 77     ecut=    60.00 Ry     beta= 0.70
     Davidson diagonalization with overlap
     ethr =  1.40E-08,  avg # of iterations =  1.0

     total cpu time spent up to now is      876.1 secs

     total energy              =   -1443.68209974 Ry
     estimated scf accuracy    <       0.00001066 Ry

     iteration # 78     ecut=    60.00 Ry     beta= 0.70
     Davidson diagonalization with overlap
     ethr =  1.09E-08,  avg # of iterations =  3.0

     total cpu time spent up to now is      886.3 secs

     total energy              =   -1443.68209965 Ry
     estimated scf accuracy    <       0.00000265 Ry

     iteration # 79     ecut=    60.00 Ry     beta= 0.70
     Davidson diagonalization with overlap
     ethr =  2.71E-09,  avg # of iterations =  6.2

     total cpu time spent up to now is      900.0 secs

     total energy              =   -1443.68210965 Ry
     estimated scf accuracy    <       0.00020057 Ry

     iteration # 80     ecut=    60.00 Ry     beta= 0.70
     Davidson diagonalization with overlap
     ethr =  2.71E-09,  avg # of iterations =  6.4

     total cpu time spent up to now is      913.6 secs

     total energy              =   -1443.68210857 Ry
     estimated scf accuracy    <       0.00011645 Ry

     iteration # 81     ecut=    60.00 Ry     beta= 0.70
     Davidson diagonalization with overlap
     ethr =  2.71E-09,  avg # of iterations =  1.5

     total cpu time spent up to now is      923.1 secs

     total energy              =   -1443.68210866 Ry
     estimated scf accuracy    <       0.00010183 Ry

     iteration # 82     ecut=    60.00 Ry     beta= 0.70
     Davidson diagonalization with overlap
     ethr =  2.71E-09,  avg # of iterations =  1.0

     total cpu time spent up to now is      932.3 secs

     total energy              =   -1443.68210612 Ry
     estimated scf accuracy    <       0.00010147 Ry

     iteration # 83     ecut=    60.00 Ry     beta= 0.70
     Davidson diagonalization with overlap
     ethr =  2.71E-09,  avg # of iterations =  6.3

     total cpu time spent up to now is      944.5 secs

     total energy              =   -1443.68210948 Ry
     estimated scf accuracy    <       0.00006746 Ry

     iteration # 84     ecut=    60.00 Ry     beta= 0.70
     Davidson diagonalization with overlap
     ethr =  2.71E-09,  avg # of iterations =  5.8

     total cpu time spent up to now is      956.5 secs

     total energy              =   -1443.68211183 Ry
     estimated scf accuracy    <       0.00010352 Ry

     iteration # 85     ecut=    60.00 Ry     beta= 0.70
     Davidson diagonalization with overlap
     ethr =  2.71E-09,  avg # of iterations =  1.7

     total cpu time spent up to now is      966.1 secs

     total energy              =   -1443.68208705 Ry
     estimated scf accuracy    <       0.00012123 Ry

     iteration # 86     ecut=    60.00 Ry     beta= 0.70
     Davidson diagonalization with overlap
     ethr =  2.71E-09,  avg # of iterations =  7.3

     total cpu time spent up to now is      984.5 secs

     total energy              =   -1443.68211938 Ry
     estimated scf accuracy    <       0.00034639 Ry

     iteration # 87     ecut=    60.00 Ry     beta= 0.70
     Davidson diagonalization with overlap
     ethr =  2.71E-09,  avg # of iterations =  3.9

     total cpu time spent up to now is      995.2 secs

     total energy              =   -1443.68209895 Ry
     estimated scf accuracy    <       0.00028288 Ry

     iteration # 88     ecut=    60.00 Ry     beta= 0.70
     Davidson diagonalization with overlap
     ethr =  2.71E-09,  avg # of iterations =  6.7

     total cpu time spent up to now is     1011.5 secs

     total energy              =   -1443.68210451 Ry
     estimated scf accuracy    <       0.00005244 Ry

     iteration # 89     ecut=    60.00 Ry     beta= 0.70
     Davidson diagonalization with overlap
     ethr =  2.71E-09,  avg # of iterations =  1.0

     total cpu time spent up to now is     1020.7 secs

     total energy              =   -1443.68210294 Ry
     estimated scf accuracy    <       0.00005219 Ry

     iteration # 90     ecut=    60.00 Ry     beta= 0.70
     Davidson diagonalization with overlap
     ethr =  2.71E-09,  avg # of iterations =  1.8

     total cpu time spent up to now is     1030.3 secs

     total energy              =   -1443.68210370 Ry
     estimated scf accuracy    <       0.00003821 Ry

     iteration # 91     ecut=    60.00 Ry     beta= 0.70
     Davidson diagonalization with overlap
     ethr =  2.71E-09,  avg # of iterations =  1.0

     total cpu time spent up to now is     1039.6 secs

     total energy              =   -1443.68210139 Ry
     estimated scf accuracy    <       0.00003971 Ry

     iteration # 92     ecut=    60.00 Ry     beta= 0.70
     Davidson diagonalization with overlap
     ethr =  2.71E-09,  avg # of iterations =  6.3

     total cpu time spent up to now is     1051.9 secs

     total energy              =   -1443.68210191 Ry
     estimated scf accuracy    <       0.00001719 Ry

     iteration # 93     ecut=    60.00 Ry     beta= 0.70
     Davidson diagonalization with overlap
     ethr =  2.71E-09,  avg # of iterations =  1.0

     total cpu time spent up to now is     1061.1 secs

     total energy              =   -1443.68210174 Ry
     estimated scf accuracy    <       0.00001766 Ry

     iteration # 94     ecut=    60.00 Ry     beta= 0.70
     Davidson diagonalization with overlap
     ethr =  2.71E-09,  avg # of iterations =  1.0

     total cpu time spent up to now is     1070.3 secs

     total energy              =   -1443.68209886 Ry
     estimated scf accuracy    <       0.00001710 Ry

     iteration # 95     ecut=    60.00 Ry     beta= 0.70
     Davidson diagonalization with overlap
     ethr =  2.71E-09,  avg # of iterations =  6.4

     total cpu time spent up to now is     1084.8 secs

     total energy              =   -1443.68210822 Ry
     estimated scf accuracy    <       0.00017916 Ry

     iteration # 96     ecut=    60.00 Ry     beta= 0.70
     Davidson diagonalization with overlap
     ethr =  2.71E-09,  avg # of iterations =  6.7

     total cpu time spent up to now is     1098.6 secs

     total energy              =   -1443.68210489 Ry
     estimated scf accuracy    <       0.00009939 Ry

     iteration # 97     ecut=    60.00 Ry     beta= 0.70
     Davidson diagonalization with overlap
     ethr =  2.71E-09,  avg # of iterations =  6.4

     total cpu time spent up to now is     1111.1 secs

     total energy              =   -1443.68210470 Ry
     estimated scf accuracy    <       0.00005558 Ry

     iteration # 98     ecut=    60.00 Ry     beta= 0.70
     Davidson diagonalization with overlap
     ethr =  2.71E-09,  avg # of iterations =  1.0

     total cpu time spent up to now is     1120.3 secs

     total energy              =   -1443.68210567 Ry
     estimated scf accuracy    <       0.00005367 Ry

     iteration # 99     ecut=    60.00 Ry     beta= 0.70
     Davidson diagonalization with overlap
     ethr =  2.71E-09,  avg # of iterations =  1.0

     total cpu time spent up to now is     1129.5 secs

     total energy              =   -1443.68210578 Ry
     estimated scf accuracy    <       0.00005558 Ry

     iteration #100     ecut=    60.00 Ry     beta= 0.70
     Davidson diagonalization with overlap
     ethr =  2.71E-09,  avg # of iterations =  1.0

     total cpu time spent up to now is     1138.7 secs

     total energy              =   -1443.68210590 Ry
     estimated scf accuracy    <       0.00005598 Ry

     iteration #101     ecut=    60.00 Ry     beta= 0.70
     Davidson diagonalization with overlap
     ethr =  2.71E-09,  avg # of iterations =  1.0

     total cpu time spent up to now is     1147.9 secs

     total energy              =   -1443.68210559 Ry
     estimated scf accuracy    <       0.00005636 Ry

     iteration #102     ecut=    60.00 Ry     beta= 0.70
     Davidson diagonalization with overlap
     ethr =  2.71E-09,  avg # of iterations =  1.0

     total cpu time spent up to now is     1157.1 secs

     total energy              =   -1443.68210534 Ry
     estimated scf accuracy    <       0.00005564 Ry

     iteration #103     ecut=    60.00 Ry     beta= 0.70
     Davidson diagonalization with overlap
     ethr =  2.71E-09,  avg # of iterations =  1.0

     total cpu time spent up to now is     1166.3 secs

     total energy              =   -1443.68209512 Ry
     estimated scf accuracy    <       0.00005475 Ry

     iteration #104     ecut=    60.00 Ry     beta= 0.70
     Davidson diagonalization with overlap
     ethr =  2.71E-09,  avg # of iterations =  7.2

     total cpu time spent up to now is     1183.1 secs

     total energy              =   -1443.68211351 Ry
     estimated scf accuracy    <       0.00026427 Ry

     iteration #105     ecut=    60.00 Ry     beta= 0.70
     Davidson diagonalization with overlap
     ethr =  2.71E-09,  avg # of iterations =  6.1

     total cpu time spent up to now is     1195.3 secs

     total energy              =   -1443.68210690 Ry
     estimated scf accuracy    <       0.00018583 Ry

     iteration #106     ecut=    60.00 Ry     beta= 0.70
     Davidson diagonalization with overlap
     ethr =  2.71E-09,  avg # of iterations =  6.6

     total cpu time spent up to now is     1208.9 secs

     total energy              =   -1443.68210676 Ry
     estimated scf accuracy    <       0.00009570 Ry

     iteration #107     ecut=    60.00 Ry     beta= 0.70
     Davidson diagonalization with overlap
     ethr =  2.71E-09,  avg # of iterations =  1.0

     total cpu time spent up to now is     1218.1 secs

     total energy              =   -1443.68210515 Ry
     estimated scf accuracy    <       0.00009264 Ry

     iteration #108     ecut=    60.00 Ry     beta= 0.70
     Davidson diagonalization with overlap
     ethr =  2.71E-09,  avg # of iterations =  2.9

     total cpu time spent up to now is     1228.2 secs

     total energy              =   -1443.68210407 Ry
     estimated scf accuracy    <       0.00006727 Ry

     iteration #109     ecut=    60.00 Ry     beta= 0.70
     Davidson diagonalization with overlap
     ethr =  2.71E-09,  avg # of iterations =  1.3

     total cpu time spent up to now is     1237.6 secs

     total energy              =   -1443.68210175 Ry
     estimated scf accuracy    <       0.00005819 Ry

     iteration #110     ecut=    60.00 Ry     beta= 0.70
     Davidson diagonalization with overlap
     ethr =  2.71E-09,  avg # of iterations =  5.8

     total cpu time spent up to now is     1250.4 secs

     total energy              =   -1443.68210274 Ry
     estimated scf accuracy    <       0.00002374 Ry

     iteration #111     ecut=    60.00 Ry     beta= 0.70
     Davidson diagonalization with overlap
     ethr =  2.71E-09,  avg # of iterations =  1.0

     total cpu time spent up to now is     1259.7 secs

     total energy              =   -1443.68210283 Ry
     estimated scf accuracy    <       0.00002502 Ry

     iteration #112     ecut=    60.00 Ry     beta= 0.70
     Davidson diagonalization with overlap
     ethr =  2.71E-09,  avg # of iterations =  1.0

     total cpu time spent up to now is     1268.9 secs

     total energy              =   -1443.68209873 Ry
     estimated scf accuracy    <       0.00002543 Ry

     iteration #113     ecut=    60.00 Ry     beta= 0.70
     Davidson diagonalization with overlap
     ethr =  2.71E-09,  avg # of iterations =  6.6

     total cpu time spent up to now is     1283.9 secs

     total energy              =   -1443.68210960 Ry
     estimated scf accuracy    <       0.00016214 Ry

     iteration #114     ecut=    60.00 Ry     beta= 0.70
     Davidson diagonalization with overlap
     ethr =  2.71E-09,  avg # of iterations =  6.1

     total cpu time spent up to now is     1296.1 secs

     total energy              =   -1443.68210207 Ry
     estimated scf accuracy    <       0.00011242 Ry

     iteration #115     ecut=    60.00 Ry     beta= 0.70
     Davidson diagonalization with overlap
     ethr =  2.71E-09,  avg # of iterations =  6.3

     total cpu time spent up to now is     1310.7 secs

     total energy              =   -1443.68210500 Ry
     estimated scf accuracy    <       0.00003242 Ry

     iteration #116     ecut=    60.00 Ry     beta= 0.70
     Davidson diagonalization with overlap
     ethr =  2.71E-09,  avg # of iterations =  1.6

     total cpu time spent up to now is     1320.3 secs

     total energy              =   -1443.68210575 Ry
     estimated scf accuracy    <       0.00004486 Ry

     iteration #117     ecut=    60.00 Ry     beta= 0.70
     Davidson diagonalization with overlap
     ethr =  2.71E-09,  avg # of iterations =  1.0

     total cpu time spent up to now is     1329.5 secs

     total energy              =   -1443.68210578 Ry
     estimated scf accuracy    <       0.00004732 Ry

     iteration #118     ecut=    60.00 Ry     beta= 0.70
     Davidson diagonalization with overlap
     ethr =  2.71E-09,  avg # of iterations =  1.0

     total cpu time spent up to now is     1338.7 secs

     total energy              =   -1443.68210570 Ry
     estimated scf accuracy    <       0.00004798 Ry

     iteration #119     ecut=    60.00 Ry     beta= 0.70
     Davidson diagonalization with overlap
     ethr =  2.71E-09,  avg # of iterations =  1.0

     total cpu time spent up to now is     1347.9 secs

     total energy              =   -1443.68210528 Ry
     estimated scf accuracy    <       0.00004848 Ry

     iteration #120     ecut=    60.00 Ry     beta= 0.70
     Davidson diagonalization with overlap
     ethr =  2.71E-09,  avg # of iterations =  1.0

     total cpu time spent up to now is     1357.1 secs

     total energy              =   -1443.68210486 Ry
     estimated scf accuracy    <       0.00004778 Ry

     iteration #121     ecut=    60.00 Ry     beta= 0.70
     Davidson diagonalization with overlap
     ethr =  2.71E-09,  avg # of iterations =  1.0

     total cpu time spent up to now is     1366.2 secs

     total energy              =   -1443.68209713 Ry
     estimated scf accuracy    <       0.00004663 Ry

     iteration #122     ecut=    60.00 Ry     beta= 0.70
     Davidson diagonalization with overlap
     ethr =  2.71E-09,  avg # of iterations =  6.8

     total cpu time spent up to now is     1382.3 secs

     total energy              =   -1443.68210928 Ry
     estimated scf accuracy    <       0.00020910 Ry

     iteration #123     ecut=    60.00 Ry     beta= 0.70
     Davidson diagonalization with overlap
     ethr =  2.71E-09,  avg # of iterations =  6.7

     total cpu time spent up to now is     1395.4 secs

     total energy              =   -1443.68210717 Ry
     estimated scf accuracy    <       0.00012562 Ry

     iteration #124     ecut=    60.00 Ry     beta= 0.70
     Davidson diagonalization with overlap
     ethr =  2.71E-09,  avg # of iterations =  2.0

     total cpu time spent up to now is     1405.0 secs

     total energy              =   -1443.68210615 Ry
     estimated scf accuracy    <       0.00009998 Ry

     iteration #125     ecut=    60.00 Ry     beta= 0.70
     Davidson diagonalization with overlap
     ethr =  2.71E-09,  avg # of iterations =  1.6

     total cpu time spent up to now is     1414.5 secs

     total energy              =   -1443.68210583 Ry
     estimated scf accuracy    <       0.00009425 Ry

     iteration #126     ecut=    60.00 Ry     beta= 0.70
     Davidson diagonalization with overlap
     ethr =  2.71E-09,  avg # of iterations =  1.1

     total cpu time spent up to now is     1423.7 secs

     total energy              =   -1443.68210557 Ry
     estimated scf accuracy    <       0.00009181 Ry

     iteration #127     ecut=    60.00 Ry     beta= 0.70
     Davidson diagonalization with overlap
     ethr =  2.71E-09,  avg # of iterations =  1.3

     total cpu time spent up to now is     1433.1 secs

     total energy              =   -1443.68210527 Ry
     estimated scf accuracy    <       0.00008131 Ry

     iteration #128     ecut=    60.00 Ry     beta= 0.70
     Davidson diagonalization with overlap
     ethr =  2.71E-09,  avg # of iterations =  1.6

     total cpu time spent up to now is     1442.6 secs

     total energy              =   -1443.68210475 Ry
     estimated scf accuracy    <       0.00007723 Ry

     iteration #129     ecut=    60.00 Ry     beta= 0.70
     Davidson diagonalization with overlap
     ethr =  2.71E-09,  avg # of iterations =  1.8

     total cpu time spent up to now is     1452.2 secs

     total energy              =   -1443.68210520 Ry
     estimated scf accuracy    <       0.00006821 Ry

     iteration #130     ecut=    60.00 Ry     beta= 0.70
     Davidson diagonalization with overlap
     ethr =  2.71E-09,  avg # of iterations =  1.0

     total cpu time spent up to now is     1461.4 secs

     total energy              =   -1443.68209468 Ry
     estimated scf accuracy    <       0.00006862 Ry

     iteration #131     ecut=    60.00 Ry     beta= 0.70
     Davidson diagonalization with overlap
     ethr =  2.71E-09,  avg # of iterations =  6.8

     total cpu time spent up to now is     1477.7 secs

     total energy              =   -1443.68210635 Ry
     estimated scf accuracy    <       0.00018808 Ry

     iteration #132     ecut=    60.00 Ry     beta= 0.70
     Davidson diagonalization with overlap
     ethr =  2.71E-09,  avg # of iterations =  6.4

     total cpu time spent up to now is     1492.1 secs

     total energy              =   -1443.68210554 Ry
     estimated scf accuracy    <       0.00008520 Ry

     iteration #133     ecut=    60.00 Ry     beta= 0.70
     Davidson diagonalization with overlap
     ethr =  2.71E-09,  avg # of iterations =  2.1

     total cpu time spent up to now is     1501.8 secs

     total energy              =   -1443.68210507 Ry
     estimated scf accuracy    <       0.00006677 Ry

     iteration #134     ecut=    60.00 Ry     beta= 0.70
     Davidson diagonalization with overlap
     ethr =  2.71E-09,  avg # of iterations =  1.0

     total cpu time spent up to now is     1511.0 secs

     total energy              =   -1443.68210573 Ry
     estimated scf accuracy    <       0.00006465 Ry

     iteration #135     ecut=    60.00 Ry     beta= 0.70
     Davidson diagonalization with overlap
     ethr =  2.71E-09,  avg # of iterations =  1.0

     total cpu time spent up to now is     1520.2 secs

     total energy              =   -1443.68210507 Ry
     estimated scf accuracy    <       0.00006550 Ry

     iteration #136     ecut=    60.00 Ry     beta= 0.70
     Davidson diagonalization with overlap
     ethr =  2.71E-09,  avg # of iterations =  1.0

     total cpu time spent up to now is     1529.4 secs

     total energy              =   -1443.68210511 Ry
     estimated scf accuracy    <       0.00006294 Ry

     iteration #137     ecut=    60.00 Ry     beta= 0.70
     Davidson diagonalization with overlap
     ethr =  2.71E-09,  avg # of iterations =  1.0

     total cpu time spent up to now is     1538.6 secs

     total energy              =   -1443.68210524 Ry
     estimated scf accuracy    <       0.00006279 Ry

     iteration #138     ecut=    60.00 Ry     beta= 0.70
     Davidson diagonalization with overlap
     ethr =  2.71E-09,  avg # of iterations =  1.0

     total cpu time spent up to now is     1547.8 secs

     total energy              =   -1443.68210454 Ry
     estimated scf accuracy    <       0.00006258 Ry

     iteration #139     ecut=    60.00 Ry     beta= 0.70
     Davidson diagonalization with overlap
     ethr =  2.71E-09,  avg # of iterations =  1.5

     total cpu time spent up to now is     1557.2 secs

     total energy              =   -1443.68209422 Ry
     estimated scf accuracy    <       0.00005458 Ry

     iteration #140     ecut=    60.00 Ry     beta= 0.70
     Davidson diagonalization with overlap
     ethr =  2.71E-09,  avg # of iterations =  7.0

     total cpu time spent up to now is     1573.9 secs

     total energy              =   -1443.68210687 Ry
     estimated scf accuracy    <       0.00029990 Ry

     iteration #141     ecut=    60.00 Ry     beta= 0.70
     Davidson diagonalization with overlap
     ethr =  2.71E-09,  avg # of iterations =  7.0

     total cpu time spent up to now is     1589.1 secs

     total energy              =   -1443.68210657 Ry
     estimated scf accuracy    <       0.00011743 Ry

     iteration #142     ecut=    60.00 Ry     beta= 0.70
     Davidson diagonalization with overlap
     ethr =  2.71E-09,  avg # of iterations =  3.4

     total cpu time spent up to now is     1599.3 secs

     total energy              =   -1443.68210477 Ry
     estimated scf accuracy    <       0.00008764 Ry

     iteration #143     ecut=    60.00 Ry     beta= 0.70
     Davidson diagonalization with overlap
     ethr =  2.71E-09,  avg # of iterations =  4.1

     total cpu time spent up to now is     1610.2 secs

     total energy              =   -1443.68210432 Ry
     estimated scf accuracy    <       0.00006315 Ry

     iteration #144     ecut=    60.00 Ry     beta= 0.70
     Davidson diagonalization with overlap
     ethr =  2.71E-09,  avg # of iterations =  1.3

     total cpu time spent up to now is     1619.5 secs

     total energy              =   -1443.68210516 Ry
     estimated scf accuracy    <       0.00006026 Ry

     iteration #145     ecut=    60.00 Ry     beta= 0.70
     Davidson diagonalization with overlap
     ethr =  2.71E-09,  avg # of iterations =  1.0

     total cpu time spent up to now is     1628.7 secs

     total energy              =   -1443.68210523 Ry
     estimated scf accuracy    <       0.00006178 Ry

     iteration #146     ecut=    60.00 Ry     beta= 0.70
     Davidson diagonalization with overlap
     ethr =  2.71E-09,  avg # of iterations =  1.0

     total cpu time spent up to now is     1637.9 secs

     total energy              =   -1443.68210514 Ry
     estimated scf accuracy    <       0.00006185 Ry

     iteration #147     ecut=    60.00 Ry     beta= 0.70
     Davidson diagonalization with overlap
     ethr =  2.71E-09,  avg # of iterations =  1.0

     total cpu time spent up to now is     1647.0 secs

     total energy              =   -1443.68210549 Ry
     estimated scf accuracy    <       0.00006154 Ry

     iteration #148     ecut=    60.00 Ry     beta= 0.70
     Davidson diagonalization with overlap
     ethr =  2.71E-09,  avg # of iterations =  1.0

     total cpu time spent up to now is     1656.2 secs

     total energy              =   -1443.68209209 Ry
     estimated scf accuracy    <       0.00006251 Ry

     iteration #149     ecut=    60.00 Ry     beta= 0.70
     Davidson diagonalization with overlap
     ethr =  2.71E-09,  avg # of iterations =  7.1

     total cpu time spent up to now is     1673.4 secs

     total energy              =   -1443.68210424 Ry
     estimated scf accuracy    <       0.00026973 Ry

     iteration #150     ecut=    60.00 Ry     beta= 0.70
     Davidson diagonalization with overlap
     ethr =  2.71E-09,  avg # of iterations =  6.8

     total cpu time spent up to now is     1689.5 secs

     total energy              =   -1443.68210575 Ry
     estimated scf accuracy    <       0.00008558 Ry

     iteration #151     ecut=    60.00 Ry     beta= 0.70
     Davidson diagonalization with overlap
     ethr =  2.71E-09,  avg # of iterations =  1.8

     total cpu time spent up to now is     1699.0 secs

     total energy              =   -1443.68210605 Ry
     estimated scf accuracy    <       0.00006885 Ry

     iteration #152     ecut=    60.00 Ry     beta= 0.70
     Davidson diagonalization with overlap
     ethr =  2.71E-09,  avg # of iterations =  1.0

     total cpu time spent up to now is     1708.2 secs

     total energy              =   -1443.68210456 Ry
     estimated scf accuracy    <       0.00006899 Ry

     iteration #153     ecut=    60.00 Ry     beta= 0.70
     Davidson diagonalization with overlap
     ethr =  2.71E-09,  avg # of iterations =  4.0

     total cpu time spent up to now is     1718.9 secs

     total energy              =   -1443.68210392 Ry
     estimated scf accuracy    <       0.00005237 Ry

     iteration #154     ecut=    60.00 Ry     beta= 0.70
     Davidson diagonalization with overlap
     ethr =  2.71E-09,  avg # of iterations =  1.4

     total cpu time spent up to now is     1728.2 secs

     total energy              =   -1443.68210398 Ry
     estimated scf accuracy    <       0.00004663 Ry

     iteration #155     ecut=    60.00 Ry     beta= 0.70
     Davidson diagonalization with overlap
     ethr =  2.71E-09,  avg # of iterations =  1.0

     total cpu time spent up to now is     1737.4 secs

     total energy              =   -1443.68210404 Ry
     estimated scf accuracy    <       0.00004607 Ry

     iteration #156     ecut=    60.00 Ry     beta= 0.70
     Davidson diagonalization with overlap
     ethr =  2.71E-09,  avg # of iterations =  1.0

     total cpu time spent up to now is     1746.5 secs

     total energy              =   -1443.68210327 Ry
     estimated scf accuracy    <       0.00004563 Ry

     iteration #157     ecut=    60.00 Ry     beta= 0.70
     Davidson diagonalization with overlap
     ethr =  2.71E-09,  avg # of iterations =  1.7

     total cpu time spent up to now is     1756.1 secs

     total energy              =   -1443.68209680 Ry
     estimated scf accuracy    <       0.00003613 Ry

     iteration #158     ecut=    60.00 Ry     beta= 0.70
     Davidson diagonalization with overlap
     ethr =  2.71E-09,  avg # of iterations =  6.9

     total cpu time spent up to now is     1772.4 secs

     total energy              =   -1443.68210572 Ry
     estimated scf accuracy    <       0.00025806 Ry

     iteration #159     ecut=    60.00 Ry     beta= 0.70
     Davidson diagonalization with overlap
     ethr =  2.71E-09,  avg # of iterations =  6.6

     total cpu time spent up to now is     1787.4 secs

     total energy              =   -1443.68210543 Ry
     estimated scf accuracy    <       0.00009835 Ry

     iteration #160     ecut=    60.00 Ry     beta= 0.70
     Davidson diagonalization with overlap
     ethr =  2.71E-09,  avg # of iterations =  2.6

     total cpu time spent up to now is     1797.3 secs

     total energy              =   -1443.68210512 Ry
     estimated scf accuracy    <       0.00007361 Ry

     iteration #161     ecut=    60.00 Ry     beta= 0.70
     Davidson diagonalization with overlap
     ethr =  2.71E-09,  avg # of iterations =  1.0

     total cpu time spent up to now is     1806.5 secs

     total energy              =   -1443.68210478 Ry
     estimated scf accuracy    <       0.00007185 Ry

     iteration #162     ecut=    60.00 Ry     beta= 0.70
     Davidson diagonalization with overlap
     ethr =  2.71E-09,  avg # of iterations =  1.2

     total cpu time spent up to now is     1815.7 secs

     total energy              =   -1443.68210464 Ry
     estimated scf accuracy    <       0.00006901 Ry

     iteration #163     ecut=    60.00 Ry     beta= 0.70
     Davidson diagonalization with overlap
     ethr =  2.71E-09,  avg # of iterations =  1.0

     total cpu time spent up to now is     1824.8 secs

     total energy              =   -1443.68210437 Ry
     estimated scf accuracy    <       0.00006773 Ry

     iteration #164     ecut=    60.00 Ry     beta= 0.70
     Davidson diagonalization with overlap
     ethr =  2.71E-09,  avg # of iterations =  1.0

     total cpu time spent up to now is     1834.0 secs

     total energy              =   -1443.68210472 Ry
     estimated scf accuracy    <       0.00006622 Ry

     iteration #165     ecut=    60.00 Ry     beta= 0.70
     Davidson diagonalization with overlap
     ethr =  2.71E-09,  avg # of iterations =  1.0

     total cpu time spent up to now is     1843.2 secs

     total energy              =   -1443.68210544 Ry
     estimated scf accuracy    <       0.00006654 Ry

     iteration #166     ecut=    60.00 Ry     beta= 0.70
     Davidson diagonalization with overlap
     ethr =  2.71E-09,  avg # of iterations =  1.0

     total cpu time spent up to now is     1852.4 secs

     total energy              =   -1443.68209461 Ry
     estimated scf accuracy    <       0.00006816 Ry

     iteration #167     ecut=    60.00 Ry     beta= 0.70
     Davidson diagonalization with overlap
     ethr =  2.71E-09,  avg # of iterations =  6.9

     total cpu time spent up to now is     1868.8 secs

     total energy              =   -1443.68210628 Ry
     estimated scf accuracy    <       0.00019038 Ry

     iteration #168     ecut=    60.00 Ry     beta= 0.70
     Davidson diagonalization with overlap
     ethr =  2.71E-09,  avg # of iterations =  6.6

     total cpu time spent up to now is     1883.4 secs

     total energy              =   -1443.68210461 Ry
     estimated scf accuracy    <       0.00008457 Ry

     iteration #169     ecut=    60.00 Ry     beta= 0.70
     Davidson diagonalization with overlap
     ethr =  2.71E-09,  avg # of iterations =  5.3

     total cpu time spent up to now is     1894.9 secs

     total energy              =   -1443.68210515 Ry
     estimated scf accuracy    <       0.00005273 Ry

     iteration #170     ecut=    60.00 Ry     beta= 0.70
     Davidson diagonalization with overlap
     ethr =  2.71E-09,  avg # of iterations =  1.0

     total cpu time spent up to now is     1904.1 secs

     total energy              =   -1443.68210513 Ry
     estimated scf accuracy    <       0.00005321 Ry

     iteration #171     ecut=    60.00 Ry     beta= 0.70
     Davidson diagonalization with overlap
     ethr =  2.71E-09,  avg # of iterations =  1.0

     total cpu time spent up to now is     1913.2 secs

     total energy              =   -1443.68210462 Ry
     estimated scf accuracy    <       0.00005277 Ry

     iteration #172     ecut=    60.00 Ry     beta= 0.70
     Davidson diagonalization with overlap
     ethr =  2.71E-09,  avg # of iterations =  1.0

     total cpu time spent up to now is     1922.4 secs

     total energy              =   -1443.68210351 Ry
     estimated scf accuracy    <       0.00005108 Ry

     iteration #173     ecut=    60.00 Ry     beta= 0.70
     Davidson diagonalization with overlap
     ethr =  2.71E-09,  avg # of iterations =  1.4

     total cpu time spent up to now is     1931.8 secs

     total energy              =   -1443.68210338 Ry
     estimated scf accuracy    <       0.00003989 Ry

     iteration #174     ecut=    60.00 Ry     beta= 0.70
     Davidson diagonalization with overlap
     ethr =  2.71E-09,  avg # of iterations =  1.0

     total cpu time spent up to now is     1940.9 secs

     total energy              =   -1443.68210332 Ry
     estimated scf accuracy    <       0.00003907 Ry

     iteration #175     ecut=    60.00 Ry     beta= 0.70
     Davidson diagonalization with overlap
     ethr =  2.71E-09,  avg # of iterations =  1.0

     total cpu time spent up to now is     1950.1 secs

     total energy              =   -1443.68209696 Ry
     estimated scf accuracy    <       0.00003822 Ry

     iteration #176     ecut=    60.00 Ry     beta= 0.70
     Davidson diagonalization with overlap
     ethr =  2.71E-09,  avg # of iterations =  6.9

     total cpu time spent up to now is     1966.3 secs

     total energy              =   -1443.68211045 Ry
     estimated scf accuracy    <       0.00024042 Ry

     iteration #177     ecut=    60.00 Ry     beta= 0.70
     Davidson diagonalization with overlap
     ethr =  2.71E-09,  avg # of iterations =  7.0

     total cpu time spent up to now is     1979.6 secs

     total energy              =   -1443.68210679 Ry
     estimated scf accuracy    <       0.00014364 Ry

     iteration #178     ecut=    60.00 Ry     beta= 0.70
     Davidson diagonalization with overlap
     ethr =  2.71E-09,  avg # of iterations =  6.4

     total cpu time spent up to now is     1991.9 secs

     total energy              =   -1443.68210630 Ry
     estimated scf accuracy    <       0.00008985 Ry

     iteration #179     ecut=    60.00 Ry     beta= 0.70
     Davidson diagonalization with overlap
     ethr =  2.71E-09,  avg # of iterations =  1.0

     total cpu time spent up to now is     2001.1 secs

     total energy              =   -1443.68210588 Ry
     estimated scf accuracy    <       0.00008703 Ry

     iteration #180     ecut=    60.00 Ry     beta= 0.70
     Davidson diagonalization with overlap
     ethr =  2.71E-09,  avg # of iterations =  1.0

     total cpu time spent up to now is     2010.2 secs

     total energy              =   -1443.68210529 Ry
     estimated scf accuracy    <       0.00008481 Ry

     iteration #181     ecut=    60.00 Ry     beta= 0.70
     Davidson diagonalization with overlap
     ethr =  2.71E-09,  avg # of iterations =  1.2

     total cpu time spent up to now is     2019.5 secs

     total energy              =   -1443.68210420 Ry
     estimated scf accuracy    <       0.00007402 Ry

     iteration #182     ecut=    60.00 Ry     beta= 0.70
     Davidson diagonalization with overlap
     ethr =  2.71E-09,  avg # of iterations =  1.8

     total cpu time spent up to now is     2029.0 secs

     total energy              =   -1443.68210465 Ry
     estimated scf accuracy    <       0.00006022 Ry

     iteration #183     ecut=    60.00 Ry     beta= 0.70
     Davidson diagonalization with overlap
     ethr =  2.71E-09,  avg # of iterations =  1.0

     total cpu time spent up to now is     2038.2 secs

     total energy              =   -1443.68210628 Ry
     estimated scf accuracy    <       0.00006052 Ry

     iteration #184     ecut=    60.00 Ry     beta= 0.70
     Davidson diagonalization with overlap
     ethr =  2.71E-09,  avg # of iterations =  1.8

     total cpu time spent up to now is     2047.7 secs

     total energy              =   -1443.68209447 Ry
     estimated scf accuracy    <       0.00007688 Ry

     iteration #185     ecut=    60.00 Ry     beta= 0.70
     Davidson diagonalization with overlap
     ethr =  2.71E-09,  avg # of iterations =  6.9

     total cpu time spent up to now is     2064.0 secs

     total energy              =   -1443.68211016 Ry
     estimated scf accuracy    <       0.00017955 Ry

     iteration #186     ecut=    60.00 Ry     beta= 0.70
     Davidson diagonalization with overlap
     ethr =  2.71E-09,  avg # of iterations =  6.4

     total cpu time spent up to now is     2076.6 secs

     total energy              =   -1443.68210555 Ry
     estimated scf accuracy    <       0.00012130 Ry

     iteration #187     ecut=    60.00 Ry     beta= 0.70
     Davidson diagonalization with overlap
     ethr =  2.71E-09,  avg # of iterations =  6.7

     total cpu time spent up to now is     2090.0 secs

     total energy              =   -1443.68210546 Ry
     estimated scf accuracy    <       0.00006517 Ry

     iteration #188     ecut=    60.00 Ry     beta= 0.70
     Davidson diagonalization with overlap
     ethr =  2.71E-09,  avg # of iterations =  1.0

     total cpu time spent up to now is     2099.1 secs

     total energy              =   -1443.68210466 Ry
     estimated scf accuracy    <       0.00006332 Ry

     iteration #189     ecut=    60.00 Ry     beta= 0.70
     Davidson diagonalization with overlap
     ethr =  2.71E-09,  avg # of iterations =  1.2

     total cpu time spent up to now is     2108.4 secs

     total energy              =   -1443.68210398 Ry
     estimated scf accuracy    <       0.00005463 Ry

     iteration #190     ecut=    60.00 Ry     beta= 0.70
     Davidson diagonalization with overlap
     ethr =  2.71E-09,  avg # of iterations =  1.2

     total cpu time spent up to now is     2117.6 secs

     total energy              =   -1443.68210413 Ry
     estimated scf accuracy    <       0.00004951 Ry

     iteration #191     ecut=    60.00 Ry     beta= 0.70
     Davidson diagonalization with overlap
     ethr =  2.71E-09,  avg # of iterations =  1.0

     total cpu time spent up to now is     2126.8 secs

     total energy              =   -1443.68210401 Ry
     estimated scf accuracy    <       0.00004921 Ry

     iteration #192     ecut=    60.00 Ry     beta= 0.70
     Davidson diagonalization with overlap
     ethr =  2.71E-09,  avg # of iterations =  1.0

     total cpu time spent up to now is     2135.9 secs

     total energy              =   -1443.68210371 Ry
     estimated scf accuracy    <       0.00004822 Ry

     iteration #193     ecut=    60.00 Ry     beta= 0.70
     Davidson diagonalization with overlap
     ethr =  2.71E-09,  avg # of iterations =  1.0

     total cpu time spent up to now is     2145.1 secs

     total energy              =   -1443.68209762 Ry
     estimated scf accuracy    <       0.00004699 Ry

     iteration #194     ecut=    60.00 Ry     beta= 0.70
     Davidson diagonalization with overlap
     ethr =  2.71E-09,  avg # of iterations =  6.9

     total cpu time spent up to now is     2161.0 secs

     total energy              =   -1443.68210817 Ry
     estimated scf accuracy    <       0.00018703 Ry

     iteration #195     ecut=    60.00 Ry     beta= 0.70
     Davidson diagonalization with overlap
     ethr =  2.71E-09,  avg # of iterations =  6.7

     total cpu time spent up to now is     2174.0 secs

     total energy              =   -1443.68210460 Ry
     estimated scf accuracy    <       0.00010982 Ry

     iteration #196     ecut=    60.00 Ry     beta= 0.70
     Davidson diagonalization with overlap
     ethr =  2.71E-09,  avg # of iterations =  6.7

     total cpu time spent up to now is     2186.9 secs

     total energy              =   -1443.68210368 Ry
     estimated scf accuracy    <       0.00005958 Ry

     iteration #197     ecut=    60.00 Ry     beta= 0.70
     Davidson diagonalization with overlap
     ethr =  2.71E-09,  avg # of iterations =  1.5

     total cpu time spent up to now is     2196.2 secs

     total energy              =   -1443.68210469 Ry
     estimated scf accuracy    <       0.00004791 Ry

     iteration #198     ecut=    60.00 Ry     beta= 0.70
     Davidson diagonalization with overlap
     ethr =  2.71E-09,  avg # of iterations =  1.0

     total cpu time spent up to now is     2205.4 secs

     total energy              =   -1443.68210472 Ry
     estimated scf accuracy    <       0.00004975 Ry

     iteration #199     ecut=    60.00 Ry     beta= 0.70
     Davidson diagonalization with overlap
     ethr =  2.71E-09,  avg # of iterations =  1.0

     total cpu time spent up to now is     2214.6 secs

     total energy              =   -1443.68210501 Ry
     estimated scf accuracy    <       0.00004978 Ry

     iteration #200     ecut=    60.00 Ry     beta= 0.70
     Davidson diagonalization with overlap
     ethr =  2.71E-09,  avg # of iterations =  1.0

     total cpu time spent up to now is     2223.7 secs

     total energy              =   -1443.68210603 Ry
     estimated scf accuracy    <       0.00005057 Ry

     iteration #201     ecut=    60.00 Ry     beta= 0.70
     Davidson diagonalization with overlap
     ethr =  2.71E-09,  avg # of iterations =  1.5

     total cpu time spent up to now is     2233.2 secs

     total energy              =   -1443.68210539 Ry
     estimated scf accuracy    <       0.00006844 Ry

     iteration #202     ecut=    60.00 Ry     beta= 0.70
     Davidson diagonalization with overlap
     ethr =  2.71E-09,  avg # of iterations =  1.0

     total cpu time spent up to now is     2242.3 secs

     total energy              =   -1443.68209460 Ry
     estimated scf accuracy    <       0.00006661 Ry

     iteration #203     ecut=    60.00 Ry     beta= 0.70
     Davidson diagonalization with overlap
     ethr =  2.71E-09,  avg # of iterations =  6.9

     total cpu time spent up to now is     2258.6 secs

     total energy              =   -1443.68211116 Ry
     estimated scf accuracy    <       0.00019235 Ry

     iteration #204     ecut=    60.00 Ry     beta= 0.70
     Davidson diagonalization with overlap
     ethr =  2.71E-09,  avg # of iterations =  6.5

     total cpu time spent up to now is     2271.2 secs

     total energy              =   -1443.68210714 Ry
     estimated scf accuracy    <       0.00013301 Ry

     iteration #205     ecut=    60.00 Ry     beta= 0.70
     Davidson diagonalization with overlap
     ethr =  2.71E-09,  avg # of iterations =  6.5

     total cpu time spent up to now is     2283.8 secs

     total energy              =   -1443.68210456 Ry
     estimated scf accuracy    <       0.00008401 Ry

     iteration #206     ecut=    60.00 Ry     beta= 0.70
     Davidson diagonalization with overlap
     ethr =  2.71E-09,  avg # of iterations =  5.6

     total cpu time spent up to now is     2295.6 secs

     total energy              =   -1443.68210434 Ry
     estimated scf accuracy    <       0.00005196 Ry

     iteration #207     ecut=    60.00 Ry     beta= 0.70
     Davidson diagonalization with overlap
     ethr =  2.71E-09,  avg # of iterations =  1.0

     total cpu time spent up to now is     2304.7 secs

     total energy              =   -1443.68210327 Ry
     estimated scf accuracy    <       0.00005031 Ry

     iteration #208     ecut=    60.00 Ry     beta= 0.70
     Davidson diagonalization with overlap
     ethr =  2.71E-09,  avg # of iterations =  2.3

     total cpu time spent up to now is     2314.5 secs

     total energy              =   -1443.68210259 Ry
     estimated scf accuracy    <       0.00003675 Ry

     iteration #209     ecut=    60.00 Ry     beta= 0.70
     Davidson diagonalization with overlap
     ethr =  2.71E-09,  avg # of iterations =  1.7

     total cpu time spent up to now is     2324.0 secs

     total energy              =   -1443.68210222 Ry
     estimated scf accuracy    <       0.00002974 Ry

     iteration #210     ecut=    60.00 Ry     beta= 0.70
     Davidson diagonalization with overlap
     ethr =  2.71E-09,  avg # of iterations =  2.3

     total cpu time spent up to now is     2333.9 secs

     total energy              =   -1443.68210241 Ry
     estimated scf accuracy    <       0.00002356 Ry

     iteration #211     ecut=    60.00 Ry     beta= 0.70
     Davidson diagonalization with overlap
     ethr =  2.71E-09,  avg # of iterations =  1.0

     total cpu time spent up to now is     2343.0 secs

     total energy              =   -1443.68209838 Ry
     estimated scf accuracy    <       0.00002336 Ry

     iteration #212     ecut=    60.00 Ry     beta= 0.70
     Davidson diagonalization with overlap
     ethr =  2.71E-09,  avg # of iterations =  6.9

     total cpu time spent up to now is     2358.8 secs

     total energy              =   -1443.68210792 Ry
     estimated scf accuracy    <       0.00023347 Ry

     iteration #213     ecut=    60.00 Ry     beta= 0.70
     Davidson diagonalization with overlap
     ethr =  2.71E-09,  avg # of iterations =  7.0

     total cpu time spent up to now is     2372.7 secs

     total energy              =   -1443.68210653 Ry
     estimated scf accuracy    <       0.00011443 Ry

     iteration #214     ecut=    60.00 Ry     beta= 0.70
     Davidson diagonalization with overlap
     ethr =  2.71E-09,  avg # of iterations =  2.2

     total cpu time spent up to now is     2382.5 secs

     total energy              =   -1443.68210595 Ry
     estimated scf accuracy    <       0.00008903 Ry

     iteration #215     ecut=    60.00 Ry     beta= 0.70
     Davidson diagonalization with overlap
     ethr =  2.71E-09,  avg # of iterations =  1.0

     total cpu time spent up to now is     2391.6 secs

     total energy              =   -1443.68210622 Ry
     estimated scf accuracy    <       0.00008636 Ry

     iteration #216     ecut=    60.00 Ry     beta= 0.70
     Davidson diagonalization with overlap
     ethr =  2.71E-09,  avg # of iterations =  1.0

     total cpu time spent up to now is     2400.8 secs

     total energy              =   -1443.68210677 Ry
     estimated scf accuracy    <       0.00008606 Ry

     iteration #217     ecut=    60.00 Ry     beta= 0.70
     Davidson diagonalization with overlap
     ethr =  2.71E-09,  avg # of iterations =  1.0

     total cpu time spent up to now is     2409.9 secs

     total energy              =   -1443.68210744 Ry
     estimated scf accuracy    <       0.00008689 Ry

     iteration #218     ecut=    60.00 Ry     beta= 0.70
     Davidson diagonalization with overlap
     ethr =  2.71E-09,  avg # of iterations =  1.0

     total cpu time spent up to now is     2419.0 secs

     total energy              =   -1443.68210736 Ry
     estimated scf accuracy    <       0.00008855 Ry

[...]

     total cpu time spent up to now is     3847.3 secs

     total energy              =   -1443.68210414 Ry
     estimated scf accuracy    <       0.00005700 Ry

     iteration #346     ecut=    60.00 Ry     beta= 0.70
     Davidson diagonalization with overlap
     ethr =  1.32E-09,  avg # of iterations =  4.7

     total cpu time spent up to now is     3858.4 secs

     total energy              =   -1443.68210427 Ry
     estimated scf accuracy    <       0.00004215 Ry

     iteration #347     ecut=    60.00 Ry     beta= 0.70
     Davidson diagonalization with overlap
     ethr =  1.32E-09,  avg # of iterations =  1.0

     total cpu time spent up to now is     3867.6 secs

     total energy              =   -1443.68210439 Ry
     estimated scf accuracy    <       0.00004213 Ry

     iteration #348     ecut=    60.00 Ry     beta= 0.70
     Davidson diagonalization with overlap
     ethr =  1.32E-09,  avg # of iterations =  1.0

     total cpu time spent up to now is     3876.7 secs

     total energy              =   -1443.68210457 Ry
     estimated scf accuracy    <       0.00004223 Ry

     iteration #349     ecut=    60.00 Ry     beta= 0.70
     Davidson diagonalization with overlap
     ethr =  1.32E-09,  avg # of iterations =  1.0

     total cpu time spent up to now is     3885.8 secs

     total energy              =   -1443.68210469 Ry
     estimated scf accuracy    <       0.00004269 Ry

     iteration #350     ecut=    60.00 Ry     beta= 0.70
     Davidson diagonalization with overlap
     ethr =  1.32E-09,  avg # of iterations =  1.0

     total cpu time spent up to now is     3895.0 secs

     total energy              =   -1443.68210464 Ry
     estimated scf accuracy    <       0.00004304 Ry

     iteration #351     ecut=    60.00 Ry     beta= 0.70
     Davidson diagonalization with overlap
     ethr =  1.32E-09,  avg # of iterations =  1.0

     total cpu time spent up to now is     3904.1 secs

     total energy              =   -1443.68209709 Ry
     estimated scf accuracy    <       0.00004298 Ry

     iteration #352     ecut=    60.00 Ry     beta= 0.70
     Davidson diagonalization with overlap
     ethr =  1.32E-09,  avg # of iterations =  7.2

     total cpu time spent up to now is     3921.3 secs

     total energy              =   -1443.68210297 Ry
     estimated scf accuracy    <       0.00022316 Ry

     iteration #353     ecut=    60.00 Ry     beta= 0.70
     Davidson diagonalization with overlap
     ethr =  1.32E-09,  avg # of iterations =  7.2

     total cpu time spent up to now is     3937.8 secs

     total energy              =   -1443.68210553 Ry
     estimated scf accuracy    <       0.00006697 Ry

     iteration #354     ecut=    60.00 Ry     beta= 0.70
     Davidson diagonalization with overlap
     ethr =  1.32E-09,  avg # of iterations =  1.0

     total cpu time spent up to now is     3946.9 secs

     total energy              =   -1443.68210505 Ry
     estimated scf accuracy    <       0.00006616 Ry

     iteration #355     ecut=    60.00 Ry     beta= 0.70
     Davidson diagonalization with overlap
     ethr =  1.32E-09,  avg # of iterations =  1.0

     total cpu time spent up to now is     3956.1 secs

     total energy              =   -1443.68210492 Ry
     estimated scf accuracy    <       0.00006420 Ry

     iteration #356     ecut=    60.00 Ry     beta= 0.70
     Davidson diagonalization with overlap
     ethr =  1.32E-09,  avg # of iterations =  1.0

     total cpu time spent up to now is     3965.3 secs

     total energy              =   -1443.68210330 Ry
     estimated scf accuracy    <       0.00006369 Ry

     iteration #357     ecut=    60.00 Ry     beta= 0.70
     Davidson diagonalization with overlap
     ethr =  1.32E-09,  avg # of iterations =  5.9

     total cpu time spent up to now is     3977.3 secs

     total energy              =   -1443.68210308 Ry
     estimated scf accuracy    <       0.00003896 Ry

     iteration #358     ecut=    60.00 Ry     beta= 0.70
     Davidson diagonalization with overlap
     ethr =  1.32E-09,  avg # of iterations =  1.0

     total cpu time spent up to now is     3986.4 secs

     total energy              =   -1443.68210235 Ry
     estimated scf accuracy    <       0.00003755 Ry

     iteration #359     ecut=    60.00 Ry     beta= 0.70
     Davidson diagonalization with overlap
     ethr =  1.32E-09,  avg # of iterations =  1.9

     total cpu time spent up to now is     3996.0 secs

     total energy              =   -1443.68210179 Ry
     estimated scf accuracy    <       0.00002860 Ry

     iteration #360     ecut=    60.00 Ry     beta= 0.70
     Davidson diagonalization with overlap
     ethr =  1.32E-09,  avg # of iterations =  3.4

     total cpu time spent up to now is     4006.4 secs

     total energy              =   -1443.68209879 Ry
     estimated scf accuracy    <       0.00002085 Ry

     iteration #361     ecut=    60.00 Ry     beta= 0.70
     Davidson diagonalization with overlap
     ethr =  1.32E-09,  avg # of iterations =  6.8

     total cpu time spent up to now is     4022.4 secs

     total energy              =   -1443.68210818 Ry
     estimated scf accuracy    <       0.00016859 Ry

     iteration #362     ecut=    60.00 Ry     beta= 0.70
     Davidson diagonalization with overlap
     ethr =  1.32E-09,  avg # of iterations =  6.7

     total cpu time spent up to now is     4037.0 secs

     total energy              =   -1443.68210648 Ry
     estimated scf accuracy    <       0.00009708 Ry

     iteration #363     ecut=    60.00 Ry     beta= 0.70
     Davidson diagonalization with overlap
     ethr =  1.32E-09,  avg # of iterations =  5.5

     total cpu time spent up to now is     4048.5 secs

     total energy              =   -1443.68210635 Ry
     estimated scf accuracy    <       0.00007288 Ry

     iteration #364     ecut=    60.00 Ry     beta= 0.70
     Davidson diagonalization with overlap
     ethr =  1.32E-09,  avg # of iterations =  1.0

     total cpu time spent up to now is     4057.7 secs

     total energy              =   -1443.68210451 Ry
     estimated scf accuracy    <       0.00007196 Ry

     iteration #365     ecut=    60.00 Ry     beta= 0.70
     Davidson diagonalization with overlap
     ethr =  1.32E-09,  avg # of iterations =  6.4

     total cpu time spent up to now is     4070.2 secs

     total energy              =   -1443.68210692 Ry
     estimated scf accuracy    <       0.00004692 Ry

     iteration #366     ecut=    60.00 Ry     beta= 0.70
     Davidson diagonalization with overlap
     ethr =  1.32E-09,  avg # of iterations =  6.7

     total cpu time spent up to now is     4082.9 secs

     total energy              =   -1443.68210752 Ry
     estimated scf accuracy    <       0.00007569 Ry

     iteration #367     ecut=    60.00 Ry     beta= 0.70
     Davidson diagonalization with overlap
     ethr =  1.32E-09,  avg # of iterations =  1.0

     total cpu time spent up to now is     4092.1 secs

     total energy              =   -1443.68210744 Ry
     estimated scf accuracy    <       0.00007693 Ry

     iteration #368     ecut=    60.00 Ry     beta= 0.70
     Davidson diagonalization with overlap
     ethr =  1.32E-09,  avg # of iterations =  1.0

     total cpu time spent up to now is     4101.3 secs

     total energy              =   -1443.68210771 Ry
     estimated scf accuracy    <       0.00007697 Ry

     iteration #369     ecut=    60.00 Ry     beta= 0.70
     Davidson diagonalization with overlap
     ethr =  1.32E-09,  avg # of iterations =  1.0

     total cpu time spent up to now is     4110.4 secs

     total energy              =   -1443.68209302 Ry
     estimated scf accuracy    <       0.00007813 Ry

     iteration #370     ecut=    60.00 Ry     beta= 0.70
     Davidson diagonalization with overlap
     ethr =  1.32E-09,  avg # of iterations =  7.4

     total cpu time spent up to now is     4128.8 secs

     total energy              =   -1443.68210751 Ry
     estimated scf accuracy    <       0.00027113 Ry

     iteration #371     ecut=    60.00 Ry     beta= 0.70
     Davidson diagonalization with overlap
     ethr =  1.32E-09,  avg # of iterations =  6.8

     total cpu time spent up to now is     4144.8 secs

     total energy              =   -1443.68210622 Ry
     estimated scf accuracy    <       0.00011698 Ry

     iteration #372     ecut=    60.00 Ry     beta= 0.70
     Davidson diagonalization with overlap
     ethr =  1.32E-09,  avg # of iterations =  6.5

     total cpu time spent up to now is     4157.4 secs

     total energy              =   -1443.68210507 Ry
     estimated scf accuracy    <       0.00007801 Ry

     iteration #373     ecut=    60.00 Ry     beta= 0.70
     Davidson diagonalization with overlap
     ethr =  1.32E-09,  avg # of iterations =  1.8

     total cpu time spent up to now is     4166.9 secs

     total energy              =   -1443.68210417 Ry
     estimated scf accuracy    <       0.00006546 Ry

     iteration #374     ecut=    60.00 Ry     beta= 0.70
     Davidson diagonalization with overlap
     ethr =  1.32E-09,  avg # of iterations =  4.6

     total cpu time spent up to now is     4178.0 secs

     total energy              =   -1443.68210218 Ry
     estimated scf accuracy    <       0.00005116 Ry

     iteration #375     ecut=    60.00 Ry     beta= 0.70
     Davidson diagonalization with overlap
     ethr =  1.32E-09,  avg # of iterations =  6.3

     total cpu time spent up to now is     4191.3 secs

     total energy              =   -1443.68210258 Ry
     estimated scf accuracy    <       0.00002539 Ry

     iteration #376     ecut=    60.00 Ry     beta= 0.70
     Davidson diagonalization with overlap
     ethr =  1.32E-09,  avg # of iterations =  1.0

     total cpu time spent up to now is     4200.4 secs

     total energy              =   -1443.68210265 Ry
     estimated scf accuracy    <       0.00002566 Ry

     iteration #377     ecut=    60.00 Ry     beta= 0.70
     Davidson diagonalization with overlap
     ethr =  1.32E-09,  avg # of iterations =  1.0

     total cpu time spent up to now is     4209.6 secs

     total energy              =   -1443.68210267 Ry
     estimated scf accuracy    <       0.00002590 Ry

     iteration #378     ecut=    60.00 Ry     beta= 0.70
     Davidson diagonalization with overlap
     ethr =  1.32E-09,  avg # of iterations =  1.0

     total cpu time spent up to now is     4218.7 secs

     total energy              =   -1443.68209850 Ry
     estimated scf accuracy    <       0.00002599 Ry

     iteration #379     ecut=    60.00 Ry     beta= 0.70
     Davidson diagonalization with overlap
     ethr =  1.32E-09,  avg # of iterations =  6.7

     total cpu time spent up to now is     4234.7 secs

     total energy              =   -1443.68210863 Ry
     estimated scf accuracy    <       0.00016816 Ry

     iteration #380     ecut=    60.00 Ry     beta= 0.70
     Davidson diagonalization with overlap
     ethr =  1.32E-09,  avg # of iterations =  6.8

     total cpu time spent up to now is     4249.0 secs

     total energy              =   -1443.68210546 Ry
     estimated scf accuracy    <       0.00010135 Ry

     iteration #381     ecut=    60.00 Ry     beta= 0.70
     Davidson diagonalization with overlap
     ethr =  1.32E-09,  avg # of iterations =  6.8

     total cpu time spent up to now is     4262.5 secs

     total energy              =   -1443.68210587 Ry
     estimated scf accuracy    <       0.00006042 Ry

     iteration #382     ecut=    60.00 Ry     beta= 0.70
     Davidson diagonalization with overlap
     ethr =  1.32E-09,  avg # of iterations =  1.0

     total cpu time spent up to now is     4271.7 secs

     total energy              =   -1443.68210566 Ry
     estimated scf accuracy    <       0.00006055 Ry

     iteration #383     ecut=    60.00 Ry     beta= 0.70
     Davidson diagonalization with overlap
     ethr =  1.32E-09,  avg # of iterations =  1.0

     total cpu time spent up to now is     4280.9 secs

     total energy              =   -1443.68210566 Ry
     estimated scf accuracy    <       0.00005996 Ry

     iteration #384     ecut=    60.00 Ry     beta= 0.70
     Davidson diagonalization with overlap
     ethr =  1.32E-09,  avg # of iterations =  1.0

     total cpu time spent up to now is     4290.0 secs

     total energy              =   -1443.68210584 Ry
     estimated scf accuracy    <       0.00005980 Ry

     iteration #385     ecut=    60.00 Ry     beta= 0.70
     Davidson diagonalization with overlap
     ethr =  1.32E-09,  avg # of iterations =  1.0

     total cpu time spent up to now is     4299.2 secs

     total energy              =   -1443.68210599 Ry
     estimated scf accuracy    <       0.00006014 Ry

     iteration #386     ecut=    60.00 Ry     beta= 0.70
     Davidson diagonalization with overlap
     ethr =  1.32E-09,  avg # of iterations =  1.0

     total cpu time spent up to now is     4308.4 secs

     total energy              =   -1443.68210572 Ry
     estimated scf accuracy    <       0.00006062 Ry

     iteration #387     ecut=    60.00 Ry     beta= 0.70
     Davidson diagonalization with overlap
     ethr =  1.32E-09,  avg # of iterations =  1.0

     total cpu time spent up to now is     4317.6 secs

     total energy              =   -1443.68209436 Ry
     estimated scf accuracy    <       0.00005992 Ry

     iteration #388     ecut=    60.00 Ry     beta= 0.70
     Davidson diagonalization with overlap
     ethr =  1.32E-09,  avg # of iterations =  7.3

     total cpu time spent up to now is     4335.6 secs

     total energy              =   -1443.68210730 Ry
     estimated scf accuracy    <       0.00027649 Ry

     iteration #389     ecut=    60.00 Ry     beta= 0.70
     Davidson diagonalization with overlap
     ethr =  1.32E-09,  avg # of iterations =  7.1

     total cpu time spent up to now is     4351.8 secs

     total energy              =   -1443.68210521 Ry
     estimated scf accuracy    <       0.00011482 Ry

     iteration #390     ecut=    60.00 Ry     beta= 0.70
     Davidson diagonalization with overlap
     ethr =  1.32E-09,  avg # of iterations =  6.3

     total cpu time spent up to now is     4365.1 secs

     total energy              =   -1443.68210435 Ry
     estimated scf accuracy    <       0.00006538 Ry

     iteration #391     ecut=    60.00 Ry     beta= 0.70
     Davidson diagonalization with overlap
     ethr =  1.32E-09,  avg # of iterations =  1.5

     total cpu time spent up to now is     4374.5 secs

     total energy              =   -1443.68210480 Ry
     estimated scf accuracy    <       0.00005446 Ry

     iteration #392     ecut=    60.00 Ry     beta= 0.70
     Davidson diagonalization with overlap
     ethr =  1.32E-09,  avg # of iterations =  1.0

     total cpu time spent up to now is     4383.6 secs

     total energy              =   -1443.68210447 Ry
     estimated scf accuracy    <       0.00005519 Ry

     iteration #393     ecut=    60.00 Ry     beta= 0.70
     Davidson diagonalization with overlap
     ethr =  1.32E-09,  avg # of iterations =  1.0

     total cpu time spent up to now is     4392.8 secs

     total energy              =   -1443.68210433 Ry
     estimated scf accuracy    <       0.00005388 Ry

     iteration #394     ecut=    60.00 Ry     beta= 0.70
     Davidson diagonalization with overlap
     ethr =  1.32E-09,  avg # of iterations =  1.0

     total cpu time spent up to now is     4401.9 secs

     total energy              =   -1443.68210455 Ry
     estimated scf accuracy    <       0.00005327 Ry

     iteration #395     ecut=    60.00 Ry     beta= 0.70
     Davidson diagonalization with overlap
     ethr =  1.32E-09,  avg # of iterations =  1.0

     total cpu time spent up to now is     4411.1 secs

     total energy              =   -1443.68210462 Ry
     estimated scf accuracy    <       0.00005354 Ry

     iteration #396     ecut=    60.00 Ry     beta= 0.70
     Davidson diagonalization with overlap
     ethr =  1.32E-09,  avg # of iterations =  1.0

     total cpu time spent up to now is     4420.2 secs

     total energy              =   -1443.68209649 Ry
     estimated scf accuracy    <       0.00005364 Ry

     iteration #397     ecut=    60.00 Ry     beta= 0.70
     Davidson diagonalization with overlap
     ethr =  1.32E-09,  avg # of iterations =  7.1

     total cpu time spent up to now is     4437.2 secs

     total energy              =   -1443.68210629 Ry
     estimated scf accuracy    <       0.00016977 Ry

     iteration #398     ecut=    60.00 Ry     beta= 0.70
     Davidson diagonalization with overlap
     ethr =  1.32E-09,  avg # of iterations =  6.7

     total cpu time spent up to now is     4452.7 secs

     total energy              =   -1443.68210518 Ry
     estimated scf accuracy    <       0.00007980 Ry

     iteration #399     ecut=    60.00 Ry     beta= 0.70
     Davidson diagonalization with overlap
     ethr =  1.32E-09,  avg # of iterations =  5.6

     total cpu time spent up to now is     4464.4 secs

     total energy              =   -1443.68210511 Ry
     estimated scf accuracy    <       0.00005640 Ry

     iteration #400     ecut=    60.00 Ry     beta= 0.70
     Davidson diagonalization with overlap
     ethr =  1.32E-09,  avg # of iterations =  1.0

     total cpu time spent up to now is     4473.5 secs

     total energy              =   -1443.68210472 Ry
     estimated scf accuracy    <       0.00005567 Ry

     End of self-consistent calculation

     convergence NOT achieved after 400 iterations: stopping

     Writing config to output data dir ./K4ZrSnO6.save/

     init_run     :     31.03s CPU     31.80s WALL (       1 calls)
     electrons    :   4172.99s CPU   4441.04s WALL (       1 calls)

     Called by init_run:
     wfcinit      :      7.47s CPU      8.08s WALL (       1 calls)
     potinit      :      7.49s CPU      7.52s WALL (       1 calls)
     hinit0       :     15.55s CPU     15.60s WALL (       1 calls)

     Called by electrons:
     c_bands      :   3146.62s CPU   3332.37s WALL (     400 calls)
     sum_band     :    646.24s CPU    706.73s WALL (     400 calls)
     v_of_rho     :     22.82s CPU     23.48s WALL (     401 calls)
     newd         :    152.25s CPU    170.85s WALL (     401 calls)
     PAW_pot      :    199.94s CPU    201.33s WALL (     401 calls)
     mix_rho      :      4.06s CPU      4.24s WALL (     400 calls)

     Called by c_bands:
     init_us_2    :     47.69s CPU     48.71s WALL (   31239 calls)
     init_us_2:cp :     47.52s CPU     48.63s WALL (   31239 calls)
     cegterg      :   2995.17s CPU   3178.61s WALL (   15600 calls)

     Called by *egterg:
     cdiaghg      :    503.83s CPU    510.48s WALL (   64213 calls)
     h_psi        :   1894.50s CPU   2064.81s WALL (   64252 calls)
     s_psi        :    152.09s CPU    153.35s WALL (   64252 calls)
     g_psi        :     23.81s CPU     24.00s WALL (   48613 calls)

     Called by h_psi:
     h_psi:calbec :    165.06s CPU    171.35s WALL (   64252 calls)
     vloc_psi     :   1571.16s CPU   1733.81s WALL (   64252 calls)
     add_vuspsi   :    150.94s CPU    152.30s WALL (   64252 calls)

     General routines
     calbec       :    228.35s CPU    237.04s WALL (   79852 calls)
     fft          :      8.76s CPU      9.68s WALL (    5213 calls)
     ffts         :      0.88s CPU      0.94s WALL (     801 calls)
     fftw         :   1747.14s CPU   1928.27s WALL ( 4181102 calls)
     interpolate  :      1.41s CPU      1.53s WALL (     401 calls)
     davcio       :      0.00s CPU      0.00s WALL (      18 calls)

     Parallel routines

     PWSCF        :      1h10m CPU      1h14m WALL


   This run was terminated on:  16: 2:16   1Dec2025            

=------------------------------------------------------------------------------=
   JOB DONE.
=------------------------------------------------------------------------------=
