
     Program PWSCF v.7.1 starts on  1Dec2025 at  2:40:54 

     This program is part of the open-source Quantum ESPRESSO suite
     for quantum simulation of materials; please cite
         "P. Giannozzi et al., J. Phys.:Condens. Matter 21 395502 (2009);
         "P. Giannozzi et al., J. Phys.:Condens. Matter 29 465901 (2017);
         "P. Giannozzi et al., J. Chem. Phys. 152 154105 (2020);
          URL http://www.quantum-espresso.org", 
     in publications or presentations arising from this work. More details at
     http://www.quantum-espresso.org/quote

     Parallel version (MPI & OpenMP), running on      16 processor cores
     Number of MPI processes:                16
     Threads/MPI process:                     1

     MPI processes distributed on     1 nodes
     22027 MiB available memory on the printing compute node when the environment starts

     Waiting for input...
     Reading input from standard input

     Current dimensions of program PWSCF are:
     Max number of different atomic species (ntypx) = 10
     Max number of k-points (npk) =  40000
     Max angular momentum in pseudopotentials (lmaxx) =  4
     Message from routine read_pp_mesh:
     mismatch in mesh size, discarding the one in header
     Message from routine read_pp_mesh:
     mismatch in mesh size, discarding the one in header
     Message from routine read_pp_mesh:
     mismatch in mesh size, discarding the one in header
     Message from routine read_pp_mesh:
     mismatch in mesh size, discarding the one in header
     Message from routine read_pp_mesh:
     mismatch in mesh size, discarding the one in header
     Message from routine setup:
     using ibrav=0 with symmetry is DISCOURAGED, use correct ibrav instead

     R & G space division:  proc/nbgrp/npool/nimage =      16
     Subspace diagonalization in iterative solution of the eigenvalue problem:
     a serial algorithm will be used


     Parallelization info
     --------------------
     sticks:   dense  smooth     PW     G-vecs:    dense   smooth      PW
     Min         302     151     41                15818     5573     813
     Max         304     152     43                15821     5577     816
     Sum        4849    2417    673               253119    89199   13037

     Using Slab Decomposition



     bravais-lattice index     =            0
     lattice parameter (alat)  =      11.2511  a.u.
     unit-cell volume          =    1424.2554 (a.u.)^3
     number of atoms/cell      =           12
     number of atomic types    =            5
     number of electrons       =        98.00
     number of Kohn-Sham states=           49
     kinetic-energy cutoff     =      60.0000  Ry
     charge density cutoff     =     480.0000  Ry
     scf convergence threshold =      1.0E-10
     mixing beta               =       0.7000
     number of iterations used =            8  plain     mixing
     energy convergence thresh.=      1.0E-04
     force convergence thresh. =      1.0E-05
     press convergence thresh. =      5.0E-01
     Exchange-correlation= SLA PW PBX PBC
                           (   1   4   3   4   0   0   0)
     nstep                     =          300


     celldm(1)=  11.251125  celldm(2)=   0.000000  celldm(3)=   0.000000
     celldm(4)=   0.000000  celldm(5)=   0.000000  celldm(6)=   0.000000

     crystal axes: (cart. coord. in units of alat)
               a(1) = (   1.000000   0.000000   0.000000 )  
               a(2) = (   0.000000   1.000000   0.000000 )  
               a(3) = (   0.000000   0.000000   1.000000 )  

     reciprocal axes: (cart. coord. in units 2 pi/alat)
               b(1) = (  1.000000  0.000000  0.000000 )  
               b(2) = (  0.000000  1.000000  0.000000 )  
               b(3) = (  0.000000  0.000000  1.000000 )  


     PseudoPot. # 1 for Na read from file:
     ./Na.upf
     MD5 check sum: b8e483bdca8edababda73ba53cc0c4c9
     Pseudo is Projector augmented-wave + core cor, Zval =  9.0
     Generated using ATOMPAW code
     Shape of augmentation charge: SINC**2
     Using radial grid of 2342 points,  4 beta functions with: 
                l(1) =   0
                l(2) =   0
                l(3) =   1
                l(4) =   1
     Q(r) pseudized with 0 coefficients 


     PseudoPot. # 2 for K  read from file:
     ./K.upf
     MD5 check sum: 9356cfae17991a8ac93a0af773ad5d28
     Pseudo is Projector augmented-wave + core cor, Zval =  9.0
     Generated using ATOMPAW code
     Shape of augmentation charge: SINC**2
     Using radial grid of 2342 points,  5 beta functions with: 
                l(1) =   0
                l(2) =   0
                l(3) =   1
                l(4) =   1
                l(5) =   2
     Q(r) pseudized with 0 coefficients 


     PseudoPot. # 3 for Zr read from file:
     ./Zr.upf
     MD5 check sum: 10be9e9715c592225794718718b87d8f
     Pseudo is Projector augmented-wave + core cor, Zval = 12.0
     Generated using ATOMPAW code
     Shape of augmentation charge: BESSEL
     Using radial grid of 2342 points,  6 beta functions with: 
                l(1) =   0
                l(2) =   0
                l(3) =   1
                l(4) =   1
                l(5) =   2
                l(6) =   2
     Q(r) pseudized with 0 coefficients 


     PseudoPot. # 4 for Sn read from file:
     ./Sn.upf
     MD5 check sum: f8d5c2bd65c7f969f3af92fc3a9f2821
     Pseudo is Projector augmented-wave + core cor, Zval = 14.0
     Generated using ATOMPAW code
     Shape of augmentation charge: BESSEL
     Using radial grid of 2342 points,  6 beta functions with: 
                l(1) =   0
                l(2) =   0
                l(3) =   1
                l(4) =   1
                l(5) =   2
                l(6) =   2
     Q(r) pseudized with 0 coefficients 


     PseudoPot. # 5 for O  read from file:
     ./O.upf
     MD5 check sum: 45fbb1c0d1f8837f1e386a2947d3aa26
     Pseudo is Projector augmented-wave + core cor, Zval =  6.0
     Generated using ATOMPAW code
     Shape of augmentation charge: SINC**2
     Using radial grid of 2342 points,  4 beta functions with: 
                l(1) =   0
                l(2) =   0
                l(3) =   1
                l(4) =   1
     Q(r) pseudized with 0 coefficients 


     atomic species   valence    mass     pseudopotential
        Na             9.00    22.96000     Na( 1.00)
        K              9.00    39.09800     K ( 1.00)
        Zr            12.00    91.22400     Zr( 1.00)
        Sn            14.00   118.71000     Sn( 1.00)
        O              6.00    15.99900     O ( 1.00)

      2 Sym. Ops. (no inversion) found



   Cartesian axes

     site n.     atom                  positions (alat units)
         1           K   tau(   1) = (   0.0000000   0.0000000   0.0000000  )
         2           Na  tau(   2) = (   0.5000000   0.5000000   0.0000000  )
         3           K   tau(   3) = (   0.5000000   0.0000000   0.5000000  )
         4           Na  tau(   4) = (   0.0000000   0.5000000   0.5000000  )
         5           Zr  tau(   5) = (   0.2500000   0.2500000   0.2500000  )
         6           Sn  tau(   6) = (   0.7500000   0.7500000   0.7500000  )
         7           O   tau(   7) = (   0.2500000   0.0000000   0.0000000  )
         8           O   tau(   8) = (   0.7500000   0.0000000   0.0000000  )
         9           O   tau(   9) = (   0.0000000   0.2500000   0.0000000  )
        10           O   tau(  10) = (   0.0000000   0.7500000   0.0000000  )
        11           O   tau(  11) = (   0.0000000   0.0000000   0.2500000  )
        12           O   tau(  12) = (   0.0000000   0.0000000   0.7500000  )

     number of k points=    39
                       cart. coord. in units 2pi/alat
        k(    1) = (   0.0000000   0.0000000   0.0000000), wk =   0.0160000
        k(    2) = (   0.0000000   0.0000000   0.2000000), wk =   0.0640000
        k(    3) = (   0.0000000   0.0000000   0.4000000), wk =   0.0640000
        k(    4) = (   0.0000000   0.2000000   0.2000000), wk =   0.0640000
        k(    5) = (   0.0000000   0.2000000   0.4000000), wk =   0.0640000
        k(    6) = (   0.0000000   0.4000000   0.4000000), wk =   0.0640000
        k(    7) = (   0.2000000   0.2000000   0.2000000), wk =   0.0320000
        k(    8) = (   0.2000000   0.2000000   0.4000000), wk =   0.0640000
        k(    9) = (   0.2000000   0.4000000   0.4000000), wk =   0.0640000
        k(   10) = (   0.4000000   0.4000000   0.4000000), wk =   0.0320000
        k(   11) = (   0.0000000   0.2000000   0.0000000), wk =   0.0320000
        k(   12) = (   0.0000000   0.4000000   0.0000000), wk =   0.0320000
        k(   13) = (   0.0000000   0.2000000  -0.2000000), wk =   0.0640000
        k(   14) = (   0.2000000   0.0000000  -0.2000000), wk =   0.0320000
        k(   15) = (  -0.2000000   0.0000000  -0.2000000), wk =   0.0320000
        k(   16) = (   0.0000000   0.2000000  -0.4000000), wk =   0.0640000
        k(   17) = (   0.2000000   0.0000000  -0.4000000), wk =   0.0640000
        k(   18) = (  -0.2000000   0.0000000  -0.4000000), wk =   0.0640000
        k(   19) = (   0.0000000   0.4000000   0.2000000), wk =   0.0640000
        k(   20) = (   0.0000000   0.4000000  -0.2000000), wk =   0.0640000
        k(   21) = (   0.0000000   0.4000000  -0.4000000), wk =   0.0640000
        k(   22) = (   0.4000000   0.0000000  -0.4000000), wk =   0.0320000
        k(   23) = (  -0.4000000   0.0000000  -0.4000000), wk =   0.0320000
        k(   24) = (  -0.2000000   0.2000000  -0.2000000), wk =   0.0320000
        k(   25) = (   0.2000000  -0.2000000  -0.2000000), wk =   0.0640000
        k(   26) = (  -0.2000000   0.2000000  -0.4000000), wk =   0.0640000
        k(   27) = (   0.2000000  -0.2000000  -0.4000000), wk =   0.0640000
        k(   28) = (   0.2000000   0.2000000  -0.4000000), wk =   0.0640000
        k(   29) = (  -0.2000000   0.4000000   0.2000000), wk =   0.0640000
        k(   30) = (  -0.2000000  -0.4000000  -0.2000000), wk =   0.0320000
        k(   31) = (   0.2000000  -0.4000000   0.2000000), wk =   0.0320000
        k(   32) = (  -0.2000000   0.4000000  -0.4000000), wk =   0.0640000
        k(   33) = (   0.2000000  -0.4000000  -0.4000000), wk =   0.0640000
        k(   34) = (   0.4000000   0.2000000  -0.4000000), wk =   0.0640000
        k(   35) = (  -0.4000000  -0.2000000  -0.4000000), wk =   0.0320000
        k(   36) = (   0.4000000  -0.2000000   0.4000000), wk =   0.0320000
        k(   37) = (  -0.4000000   0.4000000   0.2000000), wk =   0.0640000
        k(   38) = (  -0.4000000   0.4000000  -0.4000000), wk =   0.0320000
        k(   39) = (   0.4000000  -0.4000000  -0.4000000), wk =   0.0640000

     Dense  grid:   253119 G-vectors     FFT dimensions: (  80,  80,  80)

     Smooth grid:    89199 G-vectors     FFT dimensions: (  60,  60,  60)

     Estimated max dynamical RAM per process >      99.33 MB

     Estimated total dynamical RAM >       1.55 GB

     Check: negative core charge=   -0.000001

     Initial potential from superposition of free atoms

     starting charge      97.9418, renormalised to      98.0000
     Starting wfcs are  126 randomized atomic wfcs
     Checking if some PAW data can be deallocated... 

     total cpu time spent up to now is       18.7 secs

     per-process dynamical memory:    88.2 Mb

     Self-consistent Calculation

     iteration #  1     ecut=    60.00 Ry     beta= 0.70
     Davidson diagonalization with overlap
     ethr =  1.00E-02,  avg # of iterations =  2.1

     total cpu time spent up to now is       24.4 secs

     total energy              =   -1438.25965542 Ry
     estimated scf accuracy    <       4.13118450 Ry

     iteration #  2     ecut=    60.00 Ry     beta= 0.70
     Davidson diagonalization with overlap
     ethr =  4.22E-03,  avg # of iterations =  5.3

     total cpu time spent up to now is       34.5 secs

     total energy              =   -1433.83564912 Ry
     estimated scf accuracy    <      51.54693034 Ry

     iteration #  3     ecut=    60.00 Ry     beta= 0.70
     Davidson diagonalization with overlap
     ethr =  4.22E-03,  avg # of iterations =  8.0

     total cpu time spent up to now is       46.1 secs

     total energy              =   -1440.49011287 Ry
     estimated scf accuracy    <       3.09106833 Ry

     iteration #  4     ecut=    60.00 Ry     beta= 0.70
     Davidson diagonalization with overlap
     ethr =  3.15E-03,  avg # of iterations =  4.6

     total cpu time spent up to now is       52.6 secs

     total energy              =   -1440.62841907 Ry
     estimated scf accuracy    <       0.74154308 Ry

     iteration #  5     ecut=    60.00 Ry     beta= 0.70
     Davidson diagonalization with overlap
     ethr =  7.57E-04,  avg # of iterations =  4.4

     total cpu time spent up to now is       58.9 secs

     total energy              =   -1440.61281910 Ry
     estimated scf accuracy    <       0.35202569 Ry

     iteration #  6     ecut=    60.00 Ry     beta= 0.70
     Davidson diagonalization with overlap
     ethr =  3.59E-04,  avg # of iterations =  5.3

     total cpu time spent up to now is       65.9 secs

     total energy              =   -1440.63312718 Ry
     estimated scf accuracy    <       0.04212918 Ry

     iteration #  7     ecut=    60.00 Ry     beta= 0.70
     Davidson diagonalization with overlap
     ethr =  4.30E-05,  avg # of iterations =  5.4

     total cpu time spent up to now is       73.7 secs

     total energy              =   -1440.63843265 Ry
     estimated scf accuracy    <       0.00867834 Ry

     iteration #  8     ecut=    60.00 Ry     beta= 0.70
     Davidson diagonalization with overlap
     ethr =  8.86E-06,  avg # of iterations =  7.5

     total cpu time spent up to now is       82.9 secs

     total energy              =   -1440.63865601 Ry
     estimated scf accuracy    <       0.00587172 Ry

     iteration #  9     ecut=    60.00 Ry     beta= 0.70
     Davidson diagonalization with overlap
     ethr =  5.99E-06,  avg # of iterations =  7.2

     total cpu time spent up to now is       91.6 secs

     total energy              =   -1440.63921720 Ry
     estimated scf accuracy    <       0.00830711 Ry

     iteration # 10     ecut=    60.00 Ry     beta= 0.70
     Davidson diagonalization with overlap
     ethr =  5.99E-06,  avg # of iterations =  6.8

     total cpu time spent up to now is       98.9 secs

     total energy              =   -1440.63991942 Ry
     estimated scf accuracy    <       0.00006778 Ry

     iteration # 11     ecut=    60.00 Ry     beta= 0.70
     Davidson diagonalization with overlap
     ethr =  6.92E-08,  avg # of iterations =  7.1

     total cpu time spent up to now is      109.8 secs

     total energy              =   -1440.64004080 Ry
     estimated scf accuracy    <       0.00015006 Ry

     iteration # 12     ecut=    60.00 Ry     beta= 0.70
     Davidson diagonalization with overlap
     ethr =  6.92E-08,  avg # of iterations =  4.0

     total cpu time spent up to now is      116.5 secs

     total energy              =   -1440.64004059 Ry
     estimated scf accuracy    <       0.00005990 Ry

     iteration # 13     ecut=    60.00 Ry     beta= 0.70
     Davidson diagonalization with overlap
     ethr =  6.11E-08,  avg # of iterations =  5.6

     total cpu time spent up to now is      123.5 secs

     total energy              =   -1440.64004499 Ry
     estimated scf accuracy    <       0.00000542 Ry

     iteration # 14     ecut=    60.00 Ry     beta= 0.70
     Davidson diagonalization with overlap
     ethr =  5.53E-09,  avg # of iterations =  6.3

     total cpu time spent up to now is      132.5 secs

     total energy              =   -1440.64004591 Ry
     estimated scf accuracy    <       0.00000476 Ry

     iteration # 15     ecut=    60.00 Ry     beta= 0.70
     Davidson diagonalization with overlap
     ethr =  4.85E-09,  avg # of iterations =  4.4

     total cpu time spent up to now is      139.3 secs

     total energy              =   -1440.64004635 Ry
     estimated scf accuracy    <       0.00000056 Ry

     iteration # 16     ecut=    60.00 Ry     beta= 0.70
     Davidson diagonalization with overlap
     ethr =  5.73E-10,  avg # of iterations =  6.7

     total cpu time spent up to now is      147.7 secs

     total energy              =   -1440.64004646 Ry
     estimated scf accuracy    <       0.00000022 Ry

     iteration # 17     ecut=    60.00 Ry     beta= 0.70
     Davidson diagonalization with overlap
     ethr =  2.24E-10,  avg # of iterations =  5.7

     total cpu time spent up to now is      155.1 secs

     total energy              =   -1440.64004648 Ry
     estimated scf accuracy    <       0.00000005 Ry

     iteration # 18     ecut=    60.00 Ry     beta= 0.70
     Davidson diagonalization with overlap
     ethr =  5.00E-11,  avg # of iterations =  5.4

     total cpu time spent up to now is      162.9 secs

     total energy              =   -1440.64004648 Ry
     estimated scf accuracy    <       0.00000001 Ry

     iteration # 19     ecut=    60.00 Ry     beta= 0.70
     Davidson diagonalization with overlap
     c_bands:  1 eigenvalues not converged
     ethr =  1.11E-11,  avg # of iterations =  6.1

     total cpu time spent up to now is      169.7 secs

     total energy              =   -1440.64004648 Ry
     estimated scf accuracy    <          2.6E-09 Ry

     iteration # 20     ecut=    60.00 Ry     beta= 0.70
     Davidson diagonalization with overlap
     ethr =  2.70E-12,  avg # of iterations =  6.7

     total cpu time spent up to now is      177.8 secs

     total energy              =   -1440.64004648 Ry
     estimated scf accuracy    <          1.7E-10 Ry

     iteration # 21     ecut=    60.00 Ry     beta= 0.70
     Davidson diagonalization with overlap
     ethr =  1.71E-13,  avg # of iterations =  5.7

     total cpu time spent up to now is      186.4 secs

     End of self-consistent calculation

          k = 0.0000 0.0000 0.0000 ( 11075 PWs)   bands (ev):

   -46.4026 -46.4016 -42.8625 -31.0820 -25.1266 -21.7280 -21.1574 -21.1307
   -19.2164 -19.1545 -19.1258 -18.4761 -18.4549 -18.2726 -18.2714 -18.2557
   -18.2513 -15.5249 -15.4155 -15.3732 -15.3187 -15.1981 -12.9136 -12.8958
    -9.8996  -9.1366  -8.4612  -8.3927  -5.6781  -5.6492  -5.5659  -2.6229
    -1.3512  -1.2869  -0.1023  -0.0322   0.3661   1.8726   1.8799   2.3571
     2.3901   2.6586   3.1747   4.3110   4.3854   5.2388   5.3464   6.6972
     7.1667

          k = 0.0000 0.0000 0.2000 ( 11172 PWs)   bands (ev):

   -46.4026 -46.4016 -42.8625 -31.0820 -25.1265 -21.7286 -21.1576 -21.1312
   -19.2169 -19.1553 -19.1254 -18.4771 -18.4550 -18.2728 -18.2715 -18.2555
   -18.2520 -15.5261 -15.4138 -15.3726 -15.3191 -15.1986 -12.9053 -12.8847
    -9.8984  -9.1166  -8.4597  -8.3890  -5.7982  -5.6585  -5.5776  -2.6310
    -1.3584  -1.2964  -0.0503   0.0897   0.3653   1.8756   1.9103   2.3328
     2.4020   2.8146   3.1897   4.2702   4.3438   5.2138   5.3794   6.6100
     7.1224

          k = 0.0000 0.0000 0.4000 ( 11172 PWs)   bands (ev):

   -46.4025 -46.4017 -42.8625 -31.0819 -25.1264 -21.7297 -21.1580 -21.1320
   -19.2179 -19.1564 -19.1249 -18.4786 -18.4549 -18.2729 -18.2714 -18.2548
   -18.2530 -15.5278 -15.4109 -15.3717 -15.3197 -15.1993 -12.9000 -12.8582
    -9.8951  -9.0832  -8.4574  -8.3817  -6.0138  -5.6573  -5.5834  -2.6441
    -1.3713  -1.3085  -0.0405   0.2647   0.4510   1.8886   1.9762   2.2956
     2.4509   3.0078   3.2234   4.2050   4.2792   5.1721   5.4547   6.4937
     7.0206

          k = 0.0000 0.2000 0.2000 ( 11178 PWs)   bands (ev):

   -46.4026 -46.4016 -42.8625 -31.0819 -25.1265 -21.7291 -21.1583 -21.1312
   -19.2157 -19.1544 -19.1277 -18.4785 -18.4562 -18.2729 -18.2715 -18.2557
   -18.2518 -15.5241 -15.4124 -15.3732 -15.3193 -15.1991 -12.9046 -12.8704
    -9.8707  -9.1178  -8.4603  -8.3889  -5.7999  -5.7297  -5.6430  -2.6448
    -1.3667  -1.3145   0.0023   0.2138   0.3699   1.8892   1.9370   2.3571
     2.4211   2.9199   3.2156   4.2441   4.2974   5.1868   5.4392   6.6056
     7.2152

          k = 0.0000 0.2000 0.4000 ( 11176 PWs)   bands (ev):

   -46.4025 -46.4017 -42.8625 -31.0818 -25.1264 -21.7301 -21.1587 -21.1321
   -19.2174 -19.1561 -19.1271 -18.4790 -18.4554 -18.2729 -18.2714 -18.2549
   -18.2530 -15.5262 -15.4105 -15.3722 -15.3198 -15.1996 -12.8947 -12.8475
    -9.8699  -9.0829  -8.4580  -8.3815  -6.0127  -5.7293  -5.6496  -2.6604
    -1.3811  -1.3267   0.0576   0.3488   0.4976   1.9039   1.9883   2.3287
     2.4664   3.0169   3.2470   4.1726   4.2414   5.1451   5.5805   6.5210
     7.0220

          k = 0.0000 0.4000 0.4000 ( 11190 PWs)   bands (ev):

   -46.4025 -46.4017 -42.8625 -31.0818 -25.1264 -21.7305 -21.1598 -21.1321
   -19.2174 -19.1560 -19.1306 -18.4790 -18.4555 -18.2730 -18.2715 -18.2549
   -18.2531 -15.5239 -15.4106 -15.3731 -15.3198 -15.1997 -12.8896 -12.8257
    -9.8289  -9.0800  -8.4591  -8.3811  -6.0111  -5.9423  -5.6519  -2.6899
    -1.3951  -1.3541   0.1328   0.4990   0.6653   1.9208   2.0371   2.3104
     2.5328   2.9625   3.2950   4.1184   4.1911   5.0980   5.8906   6.5001
     6.9600

          k = 0.2000 0.2000 0.2000 ( 11200 PWs)   bands (ev):

   -46.4026 -46.4016 -42.8625 -31.0819 -25.1264 -21.7300 -21.1585 -21.1318
   -19.2155 -19.1552 -19.1273 -18.4788 -18.4575 -18.2730 -18.2712 -18.2548
   -18.2529 -15.5262 -15.4103 -15.3722 -15.3197 -15.1997 -12.8905 -12.8625
    -9.8807  -9.0824  -8.4571  -8.3950  -5.8089  -5.7793  -5.7206  -2.6553
    -1.3781  -1.3265   0.1765   0.2239   0.3589   1.9363   1.9604   2.3770
     2.4343   3.0099   3.2350   4.1967   4.2373   5.1620   5.4856   6.7043
     6.9671

          k = 0.2000 0.2000 0.4000 ( 11163 PWs)   bands (ev):

   -46.4025 -46.4017 -42.8625 -31.0818 -25.1263 -21.7306 -21.1588 -21.1326
   -19.2174 -19.1570 -19.1273 -18.4791 -18.4569 -18.2731 -18.2711 -18.2544
   -18.2535 -15.5257 -15.4084 -15.3722 -15.3202 -15.2004 -12.8772 -12.8479
    -9.8456  -9.0777  -8.4582  -8.3925  -6.0045  -5.7882  -5.7229  -2.6840
    -1.3974  -1.3407   0.2198   0.3945   0.5221   1.9504   2.0061   2.3716
     2.4737   3.0075   3.2674   4.1196   4.2049   5.1167   5.6590   6.6148
     6.9780

          k = 0.2000 0.4000 0.4000 ( 11170 PWs)   bands (ev):

   -46.4025 -46.4017 -42.8625 -31.0817 -25.1263 -21.7308 -21.1600 -21.1327
   -19.2185 -19.1574 -19.1308 -18.4783 -18.4562 -18.2732 -18.2711 -18.2543
   -18.2536 -15.5237 -15.4093 -15.3731 -15.3201 -15.2002 -12.8727 -12.8247
    -9.8054  -9.0749  -8.4592  -8.3923  -6.0031  -5.9420  -5.7831  -2.7134
    -1.4107  -1.3700   0.3267   0.5520   0.6650   1.9634   2.0482   2.3670
     2.5376   2.9363   3.3140   4.0928   4.1476   5.0696   5.9611   6.5342
     6.8947

          k = 0.4000 0.4000 0.4000 ( 11215 PWs)   bands (ev):

   -46.4026 -46.4017 -42.8625 -31.0816 -25.1264 -21.7308 -21.1602 -21.1335
   -19.2217 -19.1599 -19.1314 -18.4769 -18.4559 -18.2735 -18.2709 -18.2551
   -18.2528 -15.5210 -15.4082 -15.3741 -15.3205 -15.2005 -12.8474 -12.8257
    -9.7240  -9.1107  -8.4635  -8.4034  -5.9994  -5.9814  -5.9332  -2.7537
    -1.4387  -1.3888   0.6342   0.6403   0.6865   2.0148   2.0379   2.4865
     2.5324   2.8779   3.3486   4.0370   4.1311   5.0201   6.2015   6.5152
     6.8323

          k = 0.0000 0.2000 0.0000 ( 11172 PWs)   bands (ev):

   -46.4026 -46.4016 -42.8625 -31.0820 -25.1266 -21.7284 -21.1581 -21.1307
   -19.2155 -19.1537 -19.1279 -18.4773 -18.4560 -18.2730 -18.2716 -18.2560
   -18.2514 -15.5232 -15.4145 -15.3738 -15.3189 -15.1986 -12.9143 -12.8798
    -9.8726  -9.1367  -8.4619  -8.3926  -5.7383  -5.6775  -5.6166  -2.6391
    -1.3591  -1.3042  -0.1017   0.1386   0.3802   1.8745   1.9121   2.3131
     2.4349   2.8114   3.1983   4.2887   4.3454   5.2107   5.3804   6.6742
     7.1769

          k = 0.0000 0.4000 0.0000 ( 11172 PWs)   bands (ev):

   -46.4026 -46.4016 -42.8625 -31.0819 -25.1266 -21.7290 -21.1591 -21.1308
   -19.2142 -19.1525 -19.1312 -18.4789 -18.4575 -18.2732 -18.2715 -18.2562
   -18.2516 -15.5203 -15.4128 -15.3746 -15.3191 -15.1993 -12.9154 -12.8537
    -9.8259  -9.1368  -8.4629  -8.3924  -5.9476  -5.6766  -5.6250  -2.6651
    -1.3697  -1.3314  -0.1006   0.3401   0.4618   1.8776   2.0018   2.2761
     2.5011   2.9811   3.2505   4.2485   4.2978   5.1626   5.4899   6.6340
     7.1602

          k = 0.0000 0.2000-0.2000 ( 11178 PWs)   bands (ev):

   -46.4026 -46.4016 -42.8625 -31.0819 -25.1265 -21.7289 -21.1583 -21.1312
   -19.2170 -19.1551 -19.1275 -18.4771 -18.4550 -18.2730 -18.2715 -18.2556
   -18.2520 -15.5247 -15.4138 -15.3732 -15.3192 -15.1987 -12.9033 -12.8700
    -9.8743  -9.1145  -8.4604  -8.3888  -5.7999  -5.7317  -5.6414  -2.6511
    -1.3666  -1.3140   0.0052   0.2130   0.4252   1.8749   1.9265   2.2915
     2.4469   2.8810   3.2111   4.2525   4.3131   5.1857   5.4352   6.6345
     7.0053

          k = 0.2000 0.0000-0.2000 ( 11178 PWs)   bands (ev):

   -46.4025 -46.4017 -42.8625 -31.0819 -25.1266 -21.7288 -21.1577 -21.1317
   -19.2176 -19.1562 -19.1257 -18.4782 -18.4547 -18.2729 -18.2714 -18.2559
   -18.2518 -15.5238 -15.4120 -15.3732 -15.3195 -15.1993 -12.8900 -12.8872
    -9.8544  -9.1389  -8.4621  -8.3834  -5.8117  -5.7715  -5.5825  -2.6499
    -1.3691  -1.3062   0.0467   0.1720   0.4432   1.8798   1.9076   2.3138
     2.4266   2.8425   3.2033   4.2245   4.3330   5.1860   5.4324   6.5541
     7.1787

          k =-0.2000 0.0000-0.2000 ( 11178 PWs)   bands (ev):

   -46.4026 -46.4016 -42.8625 -31.0819 -25.1264 -21.7295 -21.1579 -21.1317
   -19.2171 -19.1563 -19.1249 -18.4772 -18.4559 -18.2730 -18.2713 -18.2546
   -18.2530 -15.5282 -15.4121 -15.3717 -15.3195 -15.1990 -12.8892 -12.8784
    -9.9073  -9.0825  -8.4565  -8.3951  -5.8100  -5.7750  -5.5860  -2.6393
    -1.3699  -1.3074   0.0432   0.1776   0.3367   1.9187   1.9232   2.3769
     2.3925   2.9538   3.2076   4.2252   4.2860   5.1880   5.4396   6.6481
     6.9565

          k = 0.0000 0.2000-0.4000 ( 11176 PWs)   bands (ev):

   -46.4025 -46.4017 -42.8625 -31.0818 -25.1264 -21.7299 -21.1587 -21.1321
   -19.2181 -19.1566 -19.1270 -18.4782 -18.4547 -18.2730 -18.2715 -18.2547
   -18.2532 -15.5266 -15.4114 -15.3722 -15.3197 -15.1993 -12.8938 -12.8474
    -9.8721  -9.0809  -8.4581  -8.3815  -6.0129  -5.7301  -5.6488  -2.6642
    -1.3808  -1.3265   0.0599   0.3612   0.5188   1.8932   1.9830   2.2924
     2.4825   2.9855   3.2450   4.1787   4.2487   5.1446   5.5819   6.5245
     6.9788

          k = 0.2000 0.0000-0.4000 ( 11176 PWs)   bands (ev):

   -46.4025 -46.4017 -42.8625 -31.0818 -25.1265 -21.7298 -21.1580 -21.1326
   -19.2186 -19.1575 -19.1254 -18.4790 -18.4553 -18.2731 -18.2713 -18.2556
   -18.2524 -15.5246 -15.4092 -15.3727 -15.3201 -15.2001 -12.8868 -12.8600
    -9.8353  -9.1170  -8.4612  -8.3850  -6.0042  -5.7849  -5.5857  -2.6698
    -1.3883  -1.3203   0.0688   0.3693   0.5204   1.9026   1.9705   2.3097
     2.4788   2.9506   3.2389   4.1511   4.2696   5.1413   5.5777   6.5144
     7.1703

          k =-0.2000 0.0000-0.4000 ( 11176 PWs)   bands (ev):

   -46.4025 -46.4017 -42.8625 -31.0818 -25.1263 -21.7302 -21.1581 -21.1326
   -19.2183 -19.1575 -19.1249 -18.4784 -18.4561 -18.2732 -18.2712 -18.2546
   -18.2534 -15.5273 -15.4092 -15.3717 -15.3201 -15.1999 -12.8833 -12.8576
    -9.8697  -9.0800  -8.4575  -8.3927  -6.0053  -5.7859  -5.5871  -2.6634
    -1.3889  -1.3209   0.0668   0.3426   0.4844   1.9200   1.9869   2.3453
     2.4583   3.0264   3.2416   4.1490   4.2440   5.1424   5.5740   6.5768
     6.9762

          k = 0.0000 0.4000 0.2000 ( 11176 PWs)   bands (ev):

   -46.4026 -46.4016 -42.8625 -31.0818 -25.1265 -21.7296 -21.1594 -21.1313
   -19.2151 -19.1537 -19.1310 -18.4793 -18.4570 -18.2732 -18.2714 -18.2559
   -18.2519 -15.5216 -15.4116 -15.3740 -15.3194 -15.1996 -12.9041 -12.8450
    -9.8267  -9.1162  -8.4614  -8.3886  -5.9461  -5.7942  -5.6478  -2.6731
    -1.3781  -1.3423   0.0201   0.3956   0.5031   1.8941   2.0127   2.3071
     2.5021   2.9984   3.2663   4.2040   4.2476   5.1390   5.6066   6.6089
     7.0879

          k = 0.0000 0.4000-0.2000 ( 11176 PWs)   bands (ev):

   -46.4026 -46.4016 -42.8625 -31.0818 -25.1265 -21.7295 -21.1594 -21.1313
   -19.2159 -19.1541 -19.1309 -18.4784 -18.4562 -18.2732 -18.2715 -18.2558
   -18.2521 -15.5219 -15.4125 -15.3740 -15.3193 -15.1993 -12.9033 -12.8447
    -9.8292  -9.1139  -8.4615  -8.3886  -5.9468  -5.7942  -5.6474  -2.6769
    -1.3779  -1.3421   0.0214   0.4101   0.5235   1.8868   2.0059   2.2727
     2.5132   2.9682   3.2636   4.2097   4.2557   5.1382   5.6161   6.6085
     6.9817

          k = 0.0000 0.4000-0.4000 ( 11190 PWs)   bands (ev):

   -46.4025 -46.4017 -42.8625 -31.0818 -25.1264 -21.7304 -21.1598 -21.1321
   -19.2179 -19.1563 -19.1305 -18.4785 -18.4550 -18.2731 -18.2715 -18.2547
   -18.2532 -15.5242 -15.4111 -15.3731 -15.3198 -15.1996 -12.8891 -12.8257
    -9.8304  -9.0787  -8.4591  -8.3810  -6.0119  -5.9418  -5.6517  -2.6923
    -1.3948  -1.3541   0.1341   0.5126   0.6747   1.9132   2.0335   2.2858
     2.5448   2.9424   3.2940   4.1226   4.1932   5.0975   5.9027   6.4909
     6.9291

          k = 0.4000 0.0000-0.4000 ( 11190 PWs)   bands (ev):

   -46.4025 -46.4017 -42.8625 -31.0817 -25.1265 -21.7302 -21.1582 -21.1334
   -19.2196 -19.1591 -19.1257 -18.4791 -18.4568 -18.2734 -18.2710 -18.2559
   -18.2524 -15.5220 -15.4064 -15.3733 -15.3207 -15.2012 -12.8738 -12.8488
    -9.7619  -9.1435  -8.4642  -8.3984  -6.0011  -5.9752  -5.5868  -2.7042
    -1.4170  -1.3367   0.1513   0.5521   0.6437   1.9289   2.0088   2.3273
     2.5424   2.9035   3.2772   4.0603   4.2275   5.0910   5.8545   6.5960
     7.0006

          k =-0.4000 0.0000-0.4000 ( 11190 PWs)   bands (ev):

   -46.4026 -46.4017 -42.8625 -31.0817 -25.1264 -21.7305 -21.1583 -21.1334
   -19.2194 -19.1591 -19.1254 -18.4787 -18.4573 -18.2734 -18.2710 -18.2555
   -18.2527 -15.5237 -15.4064 -15.3727 -15.3207 -15.2011 -12.8701 -12.8487
    -9.7875  -9.1155  -8.4619  -8.4037  -5.9996  -5.9786  -5.5873  -2.7004
    -1.4173  -1.3371   0.1493   0.5216   0.6325   1.9427   2.0197   2.3553
     2.5248   2.9470   3.2799   4.0589   4.2134   5.0916   5.8491   6.7314
     6.8378

          k =-0.2000 0.2000-0.2000 ( 11200 PWs)   bands (ev):

   -46.4026 -46.4016 -42.8625 -31.0819 -25.1264 -21.7296 -21.1586 -21.1318
   -19.2183 -19.1567 -19.1269 -18.4762 -18.4551 -18.2733 -18.2714 -18.2547
   -18.2532 -15.5271 -15.4132 -15.3722 -15.3194 -15.1987 -12.8883 -12.8617
    -9.8848  -9.0801  -8.4572  -8.3949  -5.8104  -5.7786  -5.7195  -2.6594
    -1.3791  -1.3252   0.1806   0.2210   0.4284   1.9163   1.9200   2.3261
     2.4541   2.9588   3.2247   4.2214   4.2529   5.1595   5.5399   6.6798
     6.7736

          k = 0.2000-0.2000-0.2000 ( 11200 PWs)   bands (ev):

   -46.4025 -46.4017 -42.8625 -31.0819 -25.1266 -21.7291 -21.1584 -21.1318
   -19.2175 -19.1558 -19.1279 -18.4786 -18.4550 -18.2730 -18.2715 -18.2560
   -18.2518 -15.5224 -15.4118 -15.3738 -15.3196 -15.1994 -12.8896 -12.8712
    -9.8285  -9.1388  -8.4627  -8.3832  -5.8112  -5.7823  -5.7102  -2.6672
    -1.3773  -1.3250   0.1708   0.2314   0.4691   1.8819   1.9329   2.3573
     2.4281   2.9035   3.2275   4.2063   4.2972   5.1588   5.5165   6.5565
     7.1301

          k =-0.2000 0.2000-0.4000 ( 11163 PWs)   bands (ev):

   -46.4025 -46.4017 -42.8625 -31.0818 -25.1263 -21.7302 -21.1589 -21.1326
   -19.2198 -19.1582 -19.1269 -18.4770 -18.4549 -18.2733 -18.2712 -18.2546
   -18.2533 -15.5262 -15.4107 -15.3722 -15.3199 -15.1994 -12.8759 -12.8471
    -9.8467  -9.0792  -8.4581  -8.3925  -6.0045  -5.7861  -5.7240  -2.6807
    -1.3992  -1.3392   0.2153   0.4104   0.5363   1.9173   1.9811   2.3739
     2.4739   2.9995   3.2589   4.1484   4.2102   5.1147   5.7429   6.5525
     6.8619

          k = 0.2000-0.2000-0.4000 ( 11163 PWs)   bands (ev):

   -46.4025 -46.4017 -42.8625 -31.0818 -25.1265 -21.7299 -21.1588 -21.1326
   -19.2194 -19.1576 -19.1275 -18.4785 -18.4549 -18.2731 -18.2713 -18.2556
   -18.2524 -15.5233 -15.4098 -15.3732 -15.3201 -15.1999 -12.8787 -12.8511
    -9.8101  -9.1177  -8.4617  -8.3847  -6.0036  -5.7865  -5.7211  -2.6854
    -1.3982  -1.3391   0.2153   0.4236   0.5485   1.9084   1.9757   2.3872
     2.4638   2.9670   3.2603   4.1447   4.2312   5.1141   5.7261   6.5006
     7.0526

          k = 0.2000 0.2000-0.4000 ( 11163 PWs)   bands (ev):

   -46.4025 -46.4017 -42.8625 -31.0818 -25.1265 -21.7300 -21.1587 -21.1326
   -19.2186 -19.1574 -19.1277 -18.4789 -18.4554 -18.2731 -18.2713 -18.2555
   -18.2525 -15.5233 -15.4093 -15.3732 -15.3201 -15.2002 -12.8780 -12.8520
    -9.8119  -9.1146  -8.4619  -8.3847  -6.0034  -5.7902  -5.7184  -2.6912
    -1.3966  -1.3399   0.2236   0.4127   0.5729   1.9224   1.9787   2.3362
     2.4934   2.9424   3.2626   4.1258   4.2407   5.1149   5.6736   6.5417
     7.1188

          k =-0.2000 0.4000 0.2000 ( 11163 PWs)   bands (ev):

   -46.4025 -46.4017 -42.8625 -31.0818 -25.1266 -21.7296 -21.1595 -21.1318
   -19.2173 -19.1552 -19.1314 -18.4790 -18.4555 -18.2730 -18.2715 -18.2561
   -18.2518 -15.5200 -15.4114 -15.3747 -15.3196 -15.1996 -12.8898 -12.8446
    -9.7839  -9.1384  -8.4637  -8.3828  -5.9470  -5.8099  -5.7615  -2.6948
    -1.3882  -1.3544   0.1751   0.4737   0.5469   1.8882   2.0055   2.3553
     2.4964   2.9612   3.2787   4.1741   4.2480   5.1116   5.7414   6.5178
     7.0808

          k =-0.2000-0.4000-0.2000 ( 11163 PWs)   bands (ev):

   -46.4026 -46.4016 -42.8625 -31.0818 -25.1264 -21.7304 -21.1597 -21.1318
   -19.2158 -19.1550 -19.1307 -18.4788 -18.4574 -18.2733 -18.2712 -18.2550
   -18.2528 -15.5238 -15.4104 -15.3731 -15.3197 -15.1999 -12.8903 -12.8360
    -9.8393  -9.0795  -8.4582  -8.3948  -5.9437  -5.8086  -5.7706  -2.6847
    -1.3901  -1.3553   0.1790   0.4232   0.5370   1.9361   2.0317   2.3220
     2.5178   3.0022   3.2836   4.1701   4.1732   5.1142   5.6936   6.7580
     6.7737

          k = 0.2000-0.4000 0.2000 ( 11163 PWs)   bands (ev):

   -46.4026 -46.4016 -42.8625 -31.0818 -25.1264 -21.7301 -21.1598 -21.1318
   -19.2175 -19.1559 -19.1305 -18.4771 -18.4559 -18.2734 -18.2713 -18.2548
   -18.2530 -15.5244 -15.4121 -15.3731 -15.3195 -15.1992 -12.8890 -12.8355
    -9.8420  -9.0779  -8.4583  -8.3948  -5.9442  -5.8095  -5.7690  -2.6873
    -1.3906  -1.3545   0.1815   0.4346   0.5705   1.9243   2.0005   2.2907
     2.5306   2.9738   3.2765   4.1807   4.1845   5.1124   5.7388   6.6902
     6.7133

          k =-0.2000 0.4000-0.4000 ( 11170 PWs)   bands (ev):

   -46.4025 -46.4017 -42.8625 -31.0817 -25.1263 -21.7306 -21.1601 -21.1327
   -19.2200 -19.1581 -19.1305 -18.4769 -18.4550 -18.2734 -18.2712 -18.2544
   -18.2535 -15.5240 -15.4108 -15.3731 -15.3200 -15.1996 -12.8718 -12.8243
    -9.8060  -9.0759  -8.4591  -8.3923  -6.0030  -5.9414  -5.7831  -2.7115
    -1.4117  -1.3691   0.3270   0.5519   0.6832   1.9475   2.0229   2.3586
     2.5473   2.9385   3.3081   4.1076   4.1501   5.0680   6.0310   6.4915
     6.8082

          k = 0.2000-0.4000-0.4000 ( 11170 PWs)   bands (ev):

   -46.4025 -46.4017 -42.8625 -31.0817 -25.1265 -21.7302 -21.1599 -21.1327
   -19.2199 -19.1576 -19.1311 -18.4781 -18.4547 -18.2732 -18.2713 -18.2556
   -18.2524 -15.5213 -15.4103 -15.3741 -15.3200 -15.1998 -12.8728 -12.8294
    -9.7685  -9.1154  -8.4627  -8.3843  -6.0031  -5.9411  -5.7802  -2.7162
    -1.4104  -1.3690   0.3259   0.5674   0.6744   1.9301   2.0202   2.3982
     2.5231   2.9381   3.3089   4.1094   4.1810   5.0676   6.0211   6.4598
     6.9509

          k = 0.4000 0.2000-0.4000 ( 11170 PWs)   bands (ev):

   -46.4025 -46.4017 -42.8625 -31.0817 -25.1265 -21.7303 -21.1589 -21.1334
   -19.2207 -19.1594 -19.1280 -18.4782 -18.4560 -18.2734 -18.2709 -18.2558
   -18.2523 -15.5210 -15.4073 -15.3738 -15.3206 -15.2008 -12.8568 -12.8480
    -9.7377  -9.1429  -8.4648  -8.3983  -6.0009  -5.9746  -5.7238  -2.7239
    -1.4262  -1.3568   0.3444   0.5938   0.6533   1.9520   2.0030   2.4027
     2.5303   2.9084   3.2980   4.0553   4.1992   5.0648   5.9656   6.5722
     6.9026

          k =-0.4000-0.2000-0.4000 ( 11170 PWs)   bands (ev):

   -46.4025 -46.4017 -42.8625 -31.0817 -25.1264 -21.7307 -21.1590 -21.1334
   -19.2196 -19.1591 -19.1278 -18.4786 -18.4573 -18.2733 -18.2709 -18.2552
   -18.2528 -15.5225 -15.4064 -15.3732 -15.3207 -15.2012 -12.8532 -12.8487
    -9.7644  -9.1127  -8.4626  -8.4036  -5.9991  -5.9785  -5.7246  -2.7230
    -1.4259  -1.3576   0.3460   0.5780   0.6319   1.9796   2.0266   2.4163
     2.5160   2.9230   3.3037   4.0456   4.1815   5.0662   5.9193   6.7029
     6.8328

          k = 0.4000-0.2000 0.4000 ( 11170 PWs)   bands (ev):

   -46.4025 -46.4017 -42.8625 -31.0817 -25.1264 -21.7304 -21.1591 -21.1334
   -19.2214 -19.1599 -19.1275 -18.4770 -18.4559 -18.2735 -18.2710 -18.2554
   -18.2527 -15.5228 -15.4082 -15.3732 -15.3205 -15.2004 -12.8531 -12.8474
    -9.7638  -9.1158  -8.4624  -8.4036  -6.0001  -5.9764  -5.7245  -2.7176
    -1.4275  -1.3565   0.3385   0.5869   0.6352   1.9514   2.0037   2.4358
     2.5075   2.9443   3.2966   4.0639   4.1852   5.0650   6.0227   6.6790
     6.7203

          k =-0.4000 0.4000 0.2000 ( 11170 PWs)   bands (ev):

   -46.4025 -46.4017 -42.8625 -31.0817 -25.1265 -21.7303 -21.1599 -21.1327
   -19.2194 -19.1575 -19.1312 -18.4784 -18.4550 -18.2731 -18.2713 -18.2555
   -18.2525 -15.5213 -15.4100 -15.3741 -15.3201 -15.2000 -12.8727 -12.8297
    -9.7697  -9.1133  -8.4628  -8.3843  -6.0035  -5.9419  -5.7797  -2.7196
    -1.4093  -1.3697   0.3288   0.5715   0.6816   1.9328   2.0290   2.3702
     2.5394   2.9173   3.3109   4.0991   4.1861   5.0680   5.9857   6.4783
     6.9889

          k =-0.4000 0.4000-0.4000 ( 11215 PWs)   bands (ev):

   -46.4026 -46.4017 -42.8625 -31.0816 -25.1264 -21.7306 -21.1602 -21.1335
   -19.2228 -19.1604 -19.1312 -18.4759 -18.4550 -18.2736 -18.2709 -18.2553
   -18.2528 -15.5212 -15.4093 -15.3741 -15.3204 -15.2000 -12.8465 -12.8256
    -9.7234  -9.1128  -8.4634  -8.4034  -6.0000  -5.9781  -5.9351  -2.7506
    -1.4395  -1.3881   0.6117   0.6362   0.7171   2.0028   2.0171   2.4800
     2.5431   2.8966   3.3435   4.0484   4.1313   5.0189   6.2822   6.5171
     6.7094

          k = 0.4000-0.4000-0.4000 ( 11215 PWs)   bands (ev):

   -46.4025 -46.4017 -42.8625 -31.0816 -25.1265 -21.7305 -21.1601 -21.1335
   -19.2225 -19.1600 -19.1316 -18.4768 -18.4550 -18.2735 -18.2710 -18.2557
   -18.2523 -15.5195 -15.4088 -15.3747 -15.3205 -15.2003 -12.8470 -12.8290
    -9.6959  -9.1416  -8.4657  -8.3980  -6.0007  -5.9811  -5.9298  -2.7554
    -1.4383  -1.3883   0.6097   0.6576   0.7106   1.9887   2.0228   2.4963
     2.5295   2.8876   3.3447   4.0428   4.1527   5.0187   6.2285   6.4851
     6.8407

     highest occupied level (ev):     7.2152

!    total energy              =   -1440.64004648 Ry
     total all-electron energy =     -1440.640046 Ry
     estimated scf accuracy    <          2.4E-11 Ry

     The total energy is the sum of the following terms:
     one-electron contribution =    -585.01306905 Ry
     hartree contribution      =     340.48173030 Ry
     xc contribution           =    -130.44522574 Ry
     ewald contribution        =    -342.76060903 Ry
     one-center paw contrib.   =    -722.90287297 Ry

     convergence has been achieved in  21 iterations

     Forces acting on atoms (cartesian axes, Ry/au):

     atom    1 type  2   force =    -0.06352443   -0.04058529   -0.06352443
     atom    2 type  1   force =     0.00327275    0.00511668   -0.00837516
     atom    3 type  2   force =    -0.02534460    0.01558988   -0.02534460
     atom    4 type  1   force =    -0.00837516    0.00511668    0.00327275
     atom    5 type  3   force =    -0.07953195   -0.06343827   -0.07953195
     atom    6 type  4   force =    -0.00997095   -0.09244531   -0.00997095
     atom    7 type  5   force =     0.66193283    0.02413115    0.03048026
     atom    8 type  5   force =    -0.58981429    0.03355582    0.03080879
     atom    9 type  5   force =     0.02789004    0.64672391    0.02789004
     atom   10 type  5   force =     0.02217671   -0.59145223    0.02217671
     atom   11 type  5   force =     0.03048026    0.02413115    0.66193283
     atom   12 type  5   force =     0.03080879    0.03355582   -0.58981429

     Total force =     1.544905     Total SCF correction =     0.000015


     Computing stress (Cartesian axis) and pressure

          total   stress  (Ry/bohr**3)                   (kbar)     P=      455.93
   0.00306776  -0.00008007   0.00000060          451.28      -11.78        0.09
  -0.00008007   0.00316253  -0.00008007          -11.78      465.22      -11.78
   0.00000060  -0.00008007   0.00306776            0.09      -11.78      451.28


     BFGS Geometry Optimization
     Energy error            =      0.0E+00 Ry
     Gradient error          =      6.6E-01 Ry/Bohr
     Cell gradient error     =      4.7E+02 kbar

     number of scf cycles    =   1
     number of bfgs steps    =   0

     enthalpy           new  =   -1440.6400464846 Ry

     new trust radius        =       0.5000000000 bohr
     new conv_thr            =            1.0E-10 Ry

     new unit-cell volume =   1688.76522 a.u.^3 (   250.24919 Ang^3 )
     density =      2.85358 g/cm^3

CELL_PARAMETERS (angstrom)
   6.298162365  -0.008986664   0.000067110
  -0.008986664   6.308799666  -0.008986664
   0.000067110  -0.008986664   6.298162365

ATOMIC_POSITIONS (angstrom)
K            -0.0267901774       -0.0170838948       -0.0267901774
Na            3.1459661943        3.1520730278       -0.0079980888
K             3.1384070109       -0.0023643672        3.1384070109
Na           -0.0079980888        3.1520730278        3.1459661943
Zr            1.5387772769        1.5459791974        1.5387772769
Sn            4.7127789007        4.6790437146        4.7127789007
O             1.8539350480        0.0075395145        0.0128712612
O             4.4746348436        0.0077848774        0.0130321844
O             0.0091366198        1.8506163965        0.0091366198
O             0.0029773564        4.4814931263        0.0029773564
O             0.0128712612        0.0075395145        1.8539350480
O             0.0130321844        0.0077848774        4.4746348436



     Writing config-only to output data dir ./K4ZrSnO6.save/
     NEW-OLD atomic charge density approx. for the potential

     Check: negative core charge=   -0.000001
     extrapolated charge  113.34054, renormalised to   98.00000

     total cpu time spent up to now is      229.1 secs

     per-process dynamical memory:   113.9 Mb

     Self-consistent Calculation

     iteration #  1     ecut=    60.00 Ry     beta= 0.70
     Davidson diagonalization with overlap
     c_bands:  3 eigenvalues not converged
     c_bands:  4 eigenvalues not converged
     c_bands:  4 eigenvalues not converged
     c_bands:  2 eigenvalues not converged
     c_bands:  4 eigenvalues not converged
     c_bands:  3 eigenvalues not converged
     c_bands:  3 eigenvalues not converged
     c_bands:  3 eigenvalues not converged
     c_bands:  3 eigenvalues not converged
     c_bands:  3 eigenvalues not converged
     c_bands:  2 eigenvalues not converged
     c_bands:  4 eigenvalues not converged
     c_bands:  3 eigenvalues not converged
     c_bands:  2 eigenvalues not converged
     c_bands:  3 eigenvalues not converged
     c_bands:  4 eigenvalues not converged
     c_bands:  3 eigenvalues not converged
     c_bands:  3 eigenvalues not converged
     c_bands:  2 eigenvalues not converged
     c_bands:  4 eigenvalues not converged
     c_bands:  5 eigenvalues not converged
     c_bands:  3 eigenvalues not converged
     c_bands:  3 eigenvalues not converged
     c_bands:  3 eigenvalues not converged
     c_bands:  3 eigenvalues not converged
     c_bands:  3 eigenvalues not converged
     c_bands:  2 eigenvalues not converged
     c_bands:  5 eigenvalues not converged
     c_bands:  2 eigenvalues not converged
     c_bands:  1 eigenvalues not converged
     c_bands:  2 eigenvalues not converged
     c_bands:  3 eigenvalues not converged
     c_bands:  2 eigenvalues not converged
     c_bands:  1 eigenvalues not converged
     c_bands:  2 eigenvalues not converged
     c_bands:  2 eigenvalues not converged
     c_bands:  3 eigenvalues not converged
     c_bands:  4 eigenvalues not converged
     ethr =  1.00E-06,  avg # of iterations = 20.0

     total cpu time spent up to now is      257.1 secs

     total energy              =   -1272.59653979 Ry
     estimated scf accuracy    <     171.31030818 Ry

     iteration #  2     ecut=    60.00 Ry     beta= 0.70
     Davidson diagonalization with overlap
     ethr =  1.00E-02,  avg # of iterations = 11.0

     total cpu time spent up to now is      276.1 secs

     total energy              =   -1391.72220816 Ry
     estimated scf accuracy    <     749.67534111 Ry

     iteration #  3     ecut=    60.00 Ry     beta= 0.70
     Davidson diagonalization with overlap
     ethr =  1.00E-02,  avg # of iterations =  8.0

     total cpu time spent up to now is      291.1 secs

     total energy              =   -1451.77872898 Ry
     estimated scf accuracy    <      84.03384953 Ry

     iteration #  4     ecut=    60.00 Ry     beta= 0.70
     Davidson diagonalization with overlap
     ethr =  1.00E-02,  avg # of iterations =  8.5

     total cpu time spent up to now is      303.5 secs

     total energy              =   -1452.47730267 Ry
     estimated scf accuracy    <      36.30650066 Ry

     iteration #  5     ecut=    60.00 Ry     beta= 0.70
     Davidson diagonalization with overlap
     ethr =  1.00E-02,  avg # of iterations =  4.2

     total cpu time spent up to now is      310.4 secs

     total energy              =   -1451.68913139 Ry
     estimated scf accuracy    <      26.57815121 Ry

     iteration #  6     ecut=    60.00 Ry     beta= 0.70
     Davidson diagonalization with overlap
     ethr =  1.00E-02,  avg # of iterations =  1.0

     total cpu time spent up to now is      315.2 secs

     total energy              =   -1446.47030975 Ry
     estimated scf accuracy    <      22.63641114 Ry

     iteration #  7     ecut=    60.00 Ry     beta= 0.70
     Davidson diagonalization with overlap
     ethr =  1.00E-02,  avg # of iterations =  2.6

     total cpu time spent up to now is      320.7 secs

     total energy              =   -1445.15948064 Ry
     estimated scf accuracy    <      12.39597151 Ry

     iteration #  8     ecut=    60.00 Ry     beta= 0.70
     Davidson diagonalization with overlap
     ethr =  1.00E-02,  avg # of iterations =  1.0

     total cpu time spent up to now is      325.6 secs

     total energy              =   -1443.73749939 Ry
     estimated scf accuracy    <       9.14902349 Ry

     iteration #  9     ecut=    60.00 Ry     beta= 0.70
     Davidson diagonalization with overlap
     ethr =  9.34E-03,  avg # of iterations =  1.0

     total cpu time spent up to now is      330.4 secs

     total energy              =   -1443.30515609 Ry
     estimated scf accuracy    <       5.88810303 Ry

     iteration # 10     ecut=    60.00 Ry     beta= 0.70
     Davidson diagonalization with overlap
     ethr =  6.01E-03,  avg # of iterations =  1.0

     total cpu time spent up to now is      335.2 secs

     total energy              =   -1440.80419022 Ry
     estimated scf accuracy    <       4.58935982 Ry

     iteration # 11     ecut=    60.00 Ry     beta= 0.70
     Davidson diagonalization with overlap
     ethr =  4.68E-03,  avg # of iterations =  4.5

     total cpu time spent up to now is      344.0 secs

     total energy              =   -1443.76814870 Ry
     estimated scf accuracy    <      18.72772122 Ry

     iteration # 12     ecut=    60.00 Ry     beta= 0.70
     Davidson diagonalization with overlap
     ethr =  4.68E-03,  avg # of iterations =  1.0

     total cpu time spent up to now is      348.8 secs

     total energy              =   -1443.21113386 Ry
     estimated scf accuracy    <      19.28289802 Ry

     iteration # 13     ecut=    60.00 Ry     beta= 0.70
     Davidson diagonalization with overlap
     ethr =  4.68E-03,  avg # of iterations =  1.1

     negative rho (up, down):  4.115E-05 0.000E+00

     total cpu time spent up to now is      353.6 secs

     total energy              =   -1443.31835401 Ry
     estimated scf accuracy    <      16.78431822 Ry

     iteration # 14     ecut=    60.00 Ry     beta= 0.70
     Davidson diagonalization with overlap
     ethr =  4.68E-03,  avg # of iterations =  1.0

     negative rho (up, down):  2.141E-03 0.000E+00

     total cpu time spent up to now is      358.4 secs

     total energy              =   -1443.50398681 Ry
     estimated scf accuracy    <      16.83412481 Ry

     iteration # 15     ecut=    60.00 Ry     beta= 0.70
     Davidson diagonalization with overlap
     ethr =  4.68E-03,  avg # of iterations =  1.0

     negative rho (up, down):  1.186E-02 0.000E+00

     total cpu time spent up to now is      363.3 secs

     total energy              =   -1443.82195706 Ry
     estimated scf accuracy    <      17.40584108 Ry

     iteration # 16     ecut=    60.00 Ry     beta= 0.70
     Davidson diagonalization with overlap
     ethr =  4.68E-03,  avg # of iterations =  3.6

     negative rho (up, down):  1.687E-04 0.000E+00

     total cpu time spent up to now is      369.2 secs

     total energy              =   -1443.44337729 Ry
     estimated scf accuracy    <      21.22430781 Ry

     iteration # 17     ecut=    60.00 Ry     beta= 0.70
     Davidson diagonalization with overlap
     ethr =  4.68E-03,  avg # of iterations =  1.1

     total cpu time spent up to now is      374.0 secs

     total energy              =   -1440.55480993 Ry
     estimated scf accuracy    <      19.95669387 Ry

     iteration # 18     ecut=    60.00 Ry     beta= 0.70
     Davidson diagonalization with overlap
     ethr =  4.68E-03,  avg # of iterations =  5.0

     total cpu time spent up to now is      382.6 secs

     total energy              =   -1441.23108431 Ry
     estimated scf accuracy    <       5.77274887 Ry

     iteration # 19     ecut=    60.00 Ry     beta= 0.70
     Davidson diagonalization with overlap
     ethr =  4.68E-03,  avg # of iterations =  4.7

     total cpu time spent up to now is      390.4 secs

     total energy              =   -1442.15603801 Ry
     estimated scf accuracy    <       1.26047416 Ry

     iteration # 20     ecut=    60.00 Ry     beta= 0.70
     Davidson diagonalization with overlap
     ethr =  1.29E-03,  avg # of iterations =  4.3

     total cpu time spent up to now is      397.0 secs

     total energy              =   -1442.19908677 Ry
     estimated scf accuracy    <       0.38381754 Ry

     iteration # 21     ecut=    60.00 Ry     beta= 0.70
     Davidson diagonalization with overlap
     ethr =  3.92E-04,  avg # of iterations =  6.5

     total cpu time spent up to now is      405.2 secs

     total energy              =   -1442.24475622 Ry
     estimated scf accuracy    <       0.39120274 Ry

     iteration # 22     ecut=    60.00 Ry     beta= 0.70
     Davidson diagonalization with overlap
     ethr =  3.92E-04,  avg # of iterations =  1.0

     total cpu time spent up to now is      410.1 secs

     total energy              =   -1442.15351925 Ry
     estimated scf accuracy    <       0.26819583 Ry

     iteration # 23     ecut=    60.00 Ry     beta= 0.70
     Davidson diagonalization with overlap
     ethr =  2.74E-04,  avg # of iterations =  5.1

     total cpu time spent up to now is      418.2 secs

     total energy              =   -1442.22833730 Ry
     estimated scf accuracy    <       0.22672962 Ry

     iteration # 24     ecut=    60.00 Ry     beta= 0.70
     Davidson diagonalization with overlap
     ethr =  2.31E-04,  avg # of iterations =  1.5

     total cpu time spent up to now is      423.2 secs

     total energy              =   -1442.21697911 Ry
     estimated scf accuracy    <       0.11608045 Ry

     iteration # 25     ecut=    60.00 Ry     beta= 0.70
     Davidson diagonalization with overlap
     ethr =  1.18E-04,  avg # of iterations =  4.8

     total cpu time spent up to now is      430.1 secs

     total energy              =   -1442.22742672 Ry
     estimated scf accuracy    <       0.00480346 Ry

     iteration # 26     ecut=    60.00 Ry     beta= 0.70
     Davidson diagonalization with overlap
     ethr =  4.90E-06,  avg # of iterations =  6.0

     total cpu time spent up to now is      438.2 secs

     total energy              =   -1442.22851673 Ry
     estimated scf accuracy    <       0.00306613 Ry

     iteration # 27     ecut=    60.00 Ry     beta= 0.70
     Davidson diagonalization with overlap
     ethr =  3.13E-06,  avg # of iterations =  4.2

     total cpu time spent up to now is      444.9 secs

     total energy              =   -1442.22875786 Ry
     estimated scf accuracy    <       0.00024877 Ry

     iteration # 28     ecut=    60.00 Ry     beta= 0.70
     Davidson diagonalization with overlap
     ethr =  2.54E-07,  avg # of iterations =  6.6

     total cpu time spent up to now is      454.0 secs

     total energy              =   -1442.22880328 Ry
     estimated scf accuracy    <       0.00012904 Ry

     iteration # 29     ecut=    60.00 Ry     beta= 0.70
     Davidson diagonalization with overlap
     ethr =  1.32E-07,  avg # of iterations =  5.8

     total cpu time spent up to now is      461.8 secs

     total energy              =   -1442.22881764 Ry
     estimated scf accuracy    <       0.00003345 Ry

     iteration # 30     ecut=    60.00 Ry     beta= 0.70
     Davidson diagonalization with overlap
     ethr =  3.41E-08,  avg # of iterations =  4.3

     total cpu time spent up to now is      468.6 secs

     total energy              =   -1442.22882045 Ry
     estimated scf accuracy    <       0.00000345 Ry

     iteration # 31     ecut=    60.00 Ry     beta= 0.70
     Davidson diagonalization with overlap
     c_bands:  1 eigenvalues not converged
     ethr =  3.52E-09,  avg # of iterations =  7.5

     total cpu time spent up to now is      477.7 secs

     total energy              =   -1442.22898516 Ry
     estimated scf accuracy    <       0.00004211 Ry

     iteration # 32     ecut=    60.00 Ry     beta= 0.70
     Davidson diagonalization with overlap
     ethr =  3.52E-09,  avg # of iterations =  3.8

     total cpu time spent up to now is      483.8 secs

     total energy              =   -1442.22898395 Ry
     estimated scf accuracy    <       0.00003514 Ry

     iteration # 33     ecut=    60.00 Ry     beta= 0.70
     Davidson diagonalization with overlap
     ethr =  3.52E-09,  avg # of iterations =  3.7

     total cpu time spent up to now is      489.6 secs

     total energy              =   -1442.22897927 Ry
     estimated scf accuracy    <       0.00002734 Ry

     iteration # 34     ecut=    60.00 Ry     beta= 0.70
     Davidson diagonalization with overlap
     ethr =  3.52E-09,  avg # of iterations =  6.4

     total cpu time spent up to now is      499.2 secs

     total energy              =   -1442.22898155 Ry
     estimated scf accuracy    <       0.00000490 Ry

     iteration # 35     ecut=    60.00 Ry     beta= 0.70
     Davidson diagonalization with overlap
     ethr =  3.52E-09,  avg # of iterations =  6.0

     total cpu time spent up to now is      506.8 secs

     total energy              =   -1442.22898242 Ry
     estimated scf accuracy    <       0.00000961 Ry

     iteration # 36     ecut=    60.00 Ry     beta= 0.70
     Davidson diagonalization with overlap
     ethr =  3.52E-09,  avg # of iterations =  1.2

     total cpu time spent up to now is      511.7 secs

     total energy              =   -1442.22898202 Ry
     estimated scf accuracy    <       0.00001119 Ry

     iteration # 37     ecut=    60.00 Ry     beta= 0.70
     Davidson diagonalization with overlap
     ethr =  3.52E-09,  avg # of iterations =  3.4

     total cpu time spent up to now is      517.8 secs

     total energy              =   -1442.22898114 Ry
     estimated scf accuracy    <       0.00001158 Ry

     iteration # 38     ecut=    60.00 Ry     beta= 0.70
     Davidson diagonalization with overlap
     ethr =  3.52E-09,  avg # of iterations =  6.2

     total cpu time spent up to now is      524.9 secs

     total energy              =   -1442.22898059 Ry
     estimated scf accuracy    <       0.00000710 Ry

     iteration # 39     ecut=    60.00 Ry     beta= 0.70
     Davidson diagonalization with overlap
     ethr =  3.52E-09,  avg # of iterations =  4.2

     total cpu time spent up to now is      531.2 secs

     total energy              =   -1442.22898021 Ry
     estimated scf accuracy    <       0.00000251 Ry

     iteration # 40     ecut=    60.00 Ry     beta= 0.70
     Davidson diagonalization with overlap
     ethr =  2.56E-09,  avg # of iterations =  6.5

     total cpu time spent up to now is      539.2 secs

     total energy              =   -1442.22898056 Ry
     estimated scf accuracy    <       0.00000009 Ry

     iteration # 41     ecut=    60.00 Ry     beta= 0.70
     Davidson diagonalization with overlap
     ethr =  9.31E-11,  avg # of iterations =  5.5

     total cpu time spent up to now is      547.9 secs

     total energy              =   -1442.22898058 Ry
     estimated scf accuracy    <       0.00000002 Ry

     iteration # 42     ecut=    60.00 Ry     beta= 0.70
     Davidson diagonalization with overlap
     ethr =  1.76E-11,  avg # of iterations =  5.6

     total cpu time spent up to now is      556.2 secs

     total energy              =   -1442.22898058 Ry
     estimated scf accuracy    <       0.00000003 Ry

     iteration # 43     ecut=    60.00 Ry     beta= 0.70
     Davidson diagonalization with overlap
     ethr =  1.76E-11,  avg # of iterations =  5.4

     total cpu time spent up to now is      564.1 secs

     total energy              =   -1442.22898058 Ry
     estimated scf accuracy    <          6.0E-10 Ry

     iteration # 44     ecut=    60.00 Ry     beta= 0.70
     Davidson diagonalization with overlap
     ethr =  6.07E-13,  avg # of iterations =  5.2

     total cpu time spent up to now is      572.4 secs

     total energy              =   -1442.22898058 Ry
     estimated scf accuracy    <          4.2E-10 Ry

     iteration # 45     ecut=    60.00 Ry     beta= 0.70
     Davidson diagonalization with overlap
     ethr =  4.29E-13,  avg # of iterations =  4.3

     total cpu time spent up to now is      579.6 secs

     total energy              =   -1442.22898058 Ry
     estimated scf accuracy    <          3.1E-10 Ry

     iteration # 46     ecut=    60.00 Ry     beta= 0.70
     Davidson diagonalization with overlap
     ethr =  3.16E-13,  avg # of iterations =  3.4

     total cpu time spent up to now is      585.5 secs

     End of self-consistent calculation

          k = 0.0000 0.0000 0.0000 ( 11075 PWs)   bands (ev):

   -48.8557 -48.8554 -45.3982 -27.0901 -24.7520 -23.5476 -23.5361 -23.3168
   -20.8998 -20.8912 -20.7340 -20.7327 -20.6964 -20.6962 -17.4231 -17.3965
   -17.3273 -17.2924 -17.2754 -14.1579 -13.9013 -13.8880 -12.5480 -12.5433
   -11.9809 -11.0101 -10.4469 -10.3490  -6.2987  -6.1078  -6.0939  -2.5886
     0.7092   0.7449   0.7534   0.9141   0.9522   1.2424   1.2690   1.5618
     2.0871   2.1247   2.2137   2.7164   3.0491   3.0558   3.9382   4.5839
     5.3291

          k =-0.0000 0.0003 0.1891 ( 11172 PWs)   bands (ev):

   -48.8557 -48.8554 -45.3982 -27.0901 -24.7518 -23.5477 -23.5361 -23.3170
   -20.9000 -20.8914 -20.7341 -20.7331 -20.6967 -20.6964 -17.4232 -17.3967
   -17.3274 -17.2925 -17.2754 -14.1789 -13.9348 -13.8912 -12.5464 -12.4802
   -11.9418 -11.0052 -10.4453 -10.3464  -6.3790  -6.1677  -6.1029  -2.6030
     0.6672   0.6970   0.7516   0.9373   1.0985   1.2563   1.3832   1.7115
     2.0941   2.1653   2.3116   2.7392   3.0081   3.0347   3.9002   4.4441
     5.1099

          k =-0.0000 0.0005 0.3781 ( 11172 PWs)   bands (ev):

   -48.8557 -48.8554 -45.3982 -27.0901 -24.7513 -23.5477 -23.5362 -23.3172
   -20.9000 -20.8914 -20.7338 -20.7333 -20.6967 -20.6964 -17.4232 -17.3968
   -17.3274 -17.2925 -17.2754 -14.2208 -13.9734 -13.8924 -12.5456 -12.4048
   -11.8575 -10.9965 -10.4430 -10.3417  -6.5812  -6.2022  -6.1020  -2.6256
     0.6111   0.6364   0.7039   0.9405   1.2649   1.3214   1.5821   1.9108
     2.1765   2.2204   2.6902   2.8152   2.9663   2.9933   3.8305   4.1471
     4.5426

          k = 0.0003 0.1890 0.1893 ( 11178 PWs)   bands (ev):

   -48.8557 -48.8554 -45.3982 -27.0901 -24.7515 -23.5477 -23.5361 -23.3170
   -20.9000 -20.8914 -20.7341 -20.7330 -20.6967 -20.6964 -17.4232 -17.3967
   -17.3274 -17.2925 -17.2754 -14.1965 -13.9515 -13.9139 -12.5160 -12.4420
   -11.9014 -11.0051 -10.4456 -10.3463  -6.4217  -6.2480  -6.1248  -2.6165
     0.6010   0.6609   0.7369   1.0235   1.1804   1.3161   1.4949   1.8569
     2.1180   2.1802   2.4031   2.7607   2.9945   3.0157   3.8646   4.4063
     5.1307

          k = 0.0003 0.1893 0.3784 ( 11176 PWs)   bands (ev):

   -48.8557 -48.8554 -45.3982 -27.0901 -24.7511 -23.5478 -23.5362 -23.3172
   -20.9000 -20.8914 -20.7337 -20.7334 -20.6967 -20.6964 -17.4233 -17.3969
   -17.3273 -17.2925 -17.2754 -14.2329 -13.9939 -13.9166 -12.5094 -12.3624
   -11.8278 -10.9961 -10.4432 -10.3417  -6.5906  -6.3085  -6.1311  -2.6377
     0.5366   0.6110   0.7277   1.0648   1.2840   1.4687   1.6851   1.9680
     2.1664   2.2880   2.7125   2.8174   2.9535   2.9972   3.7908   4.2380
     4.5227

          k = 0.0005 0.3780 0.3787 ( 11190 PWs)   bands (ev):

   -48.8557 -48.8554 -45.3982 -27.0901 -24.7508 -23.5478 -23.5362 -23.3173
   -20.9001 -20.8914 -20.7337 -20.7334 -20.6968 -20.6964 -17.4233 -17.3969
   -17.3274 -17.2925 -17.2753 -14.2589 -14.0339 -13.9312 -12.4869 -12.2820
   -11.7628 -10.9951 -10.4436 -10.3416  -6.6477  -6.4723  -6.1393  -2.6597
     0.4766   0.5522   0.7496   1.1428   1.4099   1.5883   1.8697   2.0731
     2.3206   2.3700   2.7662   2.8457   2.9905   3.0400   3.7092   4.3427
     4.3800

          k = 0.1893 0.1893 0.1893 ( 11200 PWs)   bands (ev):

   -48.8557 -48.8554 -45.3982 -27.0901 -24.7512 -23.5477 -23.5361 -23.3172
   -20.9001 -20.8915 -20.7336 -20.7336 -20.6970 -20.6963 -17.4233 -17.3969
   -17.3274 -17.2925 -17.2753 -14.2107 -13.9606 -13.9488 -12.4401 -12.4397
   -11.8766 -10.9968 -10.4432 -10.3467  -6.4547  -6.2491  -6.2389  -2.6331
     0.5982   0.6005   0.7044   1.2111   1.2115   1.4928   1.5170   1.9949
     2.1340   2.1432   2.4502   2.8130   2.9529   2.9796   3.8329   4.4112
     5.0057

          k = 0.1893 0.1896 0.3784 ( 11163 PWs)   bands (ev):

   -48.8557 -48.8554 -45.3982 -27.0901 -24.7508 -23.5478 -23.5362 -23.3173
   -20.9000 -20.8914 -20.7340 -20.7330 -20.6970 -20.6961 -17.4233 -17.3970
   -17.3273 -17.2925 -17.2752 -14.2458 -14.0064 -13.9512 -12.4411 -12.3466
   -11.7987 -10.9943 -10.4427 -10.3439  -6.5995  -6.3312  -6.2452  -2.6588
     0.5332   0.5386   0.7724   1.2262   1.4668   1.5178   1.7158   2.0321
     2.1872   2.2467   2.7368   2.8509   2.9206   2.9626   3.7558   4.3256
     4.5455

          k = 0.1896 0.3783 0.3787 ( 11170 PWs)   bands (ev):

   -48.8557 -48.8554 -45.3982 -27.0901 -24.7505 -23.5479 -23.5362 -23.3173
   -20.9001 -20.8914 -20.7339 -20.7331 -20.6970 -20.6962 -17.4234 -17.3970
   -17.3273 -17.2925 -17.2752 -14.2697 -14.0344 -13.9797 -12.3993 -12.2819
   -11.7376 -10.9932 -10.4431 -10.3438  -6.6565  -6.4711  -6.2771  -2.6797
     0.4482   0.4924   0.8494   1.3415   1.5879   1.6194   1.8850   2.0862
     2.3061   2.3679   2.8031   2.8623   2.9565   3.0153   3.6719   4.3590
     4.4309

          k = 0.3787 0.3786 0.3787 ( 11215 PWs)   bands (ev):

   -48.8557 -48.8554 -45.3982 -27.0901 -24.7502 -23.5479 -23.5363 -23.3173
   -20.9002 -20.8915 -20.7344 -20.7330 -20.6973 -20.6960 -17.4235 -17.3971
   -17.3274 -17.2925 -17.2751 -14.2951 -14.0444 -14.0297 -12.2862 -12.2798
   -11.6672 -11.0002 -10.4448 -10.3455  -6.6992  -6.4724  -6.4620  -2.7062
     0.3981   0.4139   0.9352   1.5700   1.5866   1.9722   1.9951   2.0591
     2.4269   2.4448   2.8229   2.8315   3.0532   3.0534   3.5807   4.3997
     4.3999

          k = 0.0003 0.1887 0.0003 ( 11172 PWs)   bands (ev):

   -48.8557 -48.8554 -45.3982 -27.0901 -24.7518 -23.5477 -23.5361 -23.3169
   -20.9001 -20.8914 -20.7342 -20.7329 -20.6966 -20.6965 -17.4232 -17.3967
   -17.3274 -17.2925 -17.2754 -14.1790 -13.9242 -13.9011 -12.5434 -12.4853
   -11.9343 -11.0103 -10.4471 -10.3490  -6.3806  -6.1713  -6.0936  -2.6064
     0.6619   0.6971   0.7821   0.9093   1.1030   1.2726   1.3406   1.7161
     2.1303   2.1522   2.3142   2.7406   3.0188   3.0390   3.8997   4.4844
     5.1966

          k = 0.0005 0.3775 0.0005 ( 11172 PWs)   bands (ev):

   -48.8557 -48.8554 -45.3982 -27.0901 -24.7515 -23.5478 -23.5361 -23.3170
   -20.9000 -20.8914 -20.7341 -20.7331 -20.6967 -20.6963 -17.4233 -17.3967
   -17.3273 -17.2925 -17.2753 -14.2202 -13.9643 -13.9008 -12.5435 -12.4097
   -11.8399 -11.0107 -10.4475 -10.3489  -6.5794  -6.2023  -6.0930  -2.6339
     0.6254   0.6473   0.7098   0.9059   1.2807   1.3019   1.5453   1.9378
     2.1861   2.2226   2.6928   2.8248   2.9884   3.0138   3.8279   4.2064
     4.6615

          k = 0.0003 0.1885-0.1888 ( 11178 PWs)   bands (ev):

   -48.8557 -48.8554 -45.3982 -27.0901 -24.7516 -23.5477 -23.5361 -23.3170
   -20.9001 -20.8914 -20.7341 -20.7330 -20.6967 -20.6964 -17.4233 -17.3967
   -17.3274 -17.2925 -17.2754 -14.1964 -13.9509 -13.9141 -12.5155 -12.4432
   -11.9010 -11.0052 -10.4456 -10.3463  -6.4241  -6.2452  -6.1253  -2.6220
     0.6194   0.6591   0.8398   1.0171   1.1858   1.3567   1.3803   1.7636
     2.1530   2.2119   2.3617   2.7440   2.9727   3.0418   3.8573   4.4587
     5.0659

          k = 0.1891 0.0000-0.1891 ( 11178 PWs)   bands (ev):

   -48.8557 -48.8554 -45.3982 -27.0901 -24.7516 -23.5477 -23.5361 -23.3170
   -20.9000 -20.8915 -20.7343 -20.7328 -20.6968 -20.6963 -17.4231 -17.3968
   -17.3274 -17.2925 -17.2752 -14.1999 -13.9592 -13.9050 -12.5185 -12.4406
   -11.8952 -11.0082 -10.4460 -10.3435  -6.4229  -6.2359  -6.1384  -2.6169
     0.6251   0.6643   0.8046   1.0616   1.1729   1.3428   1.3772   1.7514
     2.1226   2.2352   2.3589   2.7410   2.9801   3.0362   3.8565   4.4133
     5.0684

          k =-0.1891-0.0005-0.1891 ( 11178 PWs)   bands (ev):

   -48.8557 -48.8554 -45.3982 -27.0901 -24.7514 -23.5477 -23.5361 -23.3171
   -20.9000 -20.8914 -20.7337 -20.7335 -20.6969 -20.6962 -17.4233 -17.3968
   -17.3274 -17.2925 -17.2755 -14.1951 -13.9609 -13.9070 -12.5129 -12.4395
   -11.9126 -10.9972 -10.4430 -10.3467  -6.4220  -6.2393  -6.1365  -2.6171
     0.6042   0.6680   0.6957   1.0440   1.1876   1.3666   1.4790   1.8674
     2.0923   2.1807   2.4054   2.7618   2.9779   3.0084   3.8635   4.4005
     5.0165

          k = 0.0003 0.1882-0.3779 ( 11176 PWs)   bands (ev):

   -48.8557 -48.8554 -45.3982 -27.0901 -24.7511 -23.5478 -23.5362 -23.3172
   -20.9001 -20.8914 -20.7338 -20.7333 -20.6967 -20.6964 -17.4233 -17.3969
   -17.3273 -17.2925 -17.2754 -14.2328 -13.9936 -13.9167 -12.5093 -12.3630
   -11.8275 -10.9962 -10.4432 -10.3417  -6.5915  -6.3074  -6.1313  -2.6410
     0.5551   0.6009   0.7793   1.0656   1.2604   1.5207   1.6138   1.9392
     2.1745   2.2758   2.6954   2.8125   2.9248   3.0422   3.7855   4.2312
     4.5782

          k = 0.1891-0.0003-0.3781 ( 11176 PWs)   bands (ev):

   -48.8557 -48.8555 -45.3982 -27.0901 -24.7511 -23.5477 -23.5362 -23.3172
   -20.9001 -20.8914 -20.7342 -20.7329 -20.6970 -20.6962 -17.4232 -17.3969
   -17.3274 -17.2925 -17.2752 -14.2370 -13.9994 -13.9109 -12.5081 -12.3635
   -11.8156 -11.0024 -10.4445 -10.3418  -6.5896  -6.2985  -6.1425  -2.6388
     0.5582   0.6065   0.7483   1.0857   1.2832   1.4877   1.6135   1.9120
     2.1616   2.3039   2.6808   2.8221   2.9398   3.0282   3.7821   4.2307
     4.5938

          k =-0.1891-0.0008-0.3781 ( 11176 PWs)   bands (ev):

   -48.8557 -48.8554 -45.3982 -27.0901 -24.7511 -23.5477 -23.5362 -23.3173
   -20.9000 -20.8914 -20.7340 -20.7331 -20.6970 -20.6961 -17.4233 -17.3969
   -17.3273 -17.2925 -17.2753 -14.2343 -14.0002 -13.9122 -12.5048 -12.3628
   -11.8269 -10.9948 -10.4424 -10.3439  -6.5895  -6.3001  -6.1415  -2.6389
     0.5504   0.6105   0.6848   1.0766   1.3162   1.4944   1.6538   1.9666
     2.1793   2.2669   2.7185   2.8194   2.9318   3.0050   3.7875   4.2498
     4.5066

          k = 0.0005 0.3778 0.1896 ( 11176 PWs)   bands (ev):

   -48.8557 -48.8554 -45.3982 -27.0901 -24.7512 -23.5478 -23.5361 -23.3171
   -20.9000 -20.8914 -20.7340 -20.7332 -20.6967 -20.6964 -17.4233 -17.3968
   -17.3274 -17.2925 -17.2753 -14.2324 -13.9893 -13.9210 -12.5066 -12.3668
   -11.8168 -11.0050 -10.4460 -10.3463  -6.5886  -6.3061  -6.1291  -2.6427
     0.5446   0.6104   0.7311   1.0499   1.3043   1.4545   1.6535   1.9814
     2.1820   2.2814   2.7200   2.8231   2.9479   3.0238   3.7890   4.2769
     4.6231

          k = 0.0005 0.3772-0.1885 ( 11176 PWs)   bands (ev):

   -48.8557 -48.8554 -45.3982 -27.0901 -24.7512 -23.5478 -23.5361 -23.3171
   -20.9001 -20.8914 -20.7341 -20.7331 -20.6968 -20.6963 -17.4234 -17.3968
   -17.3274 -17.2925 -17.2753 -14.2323 -13.9889 -13.9212 -12.5064 -12.3675
   -11.8165 -11.0051 -10.4460 -10.3463  -6.5896  -6.3050  -6.1293  -2.6460
     0.5582   0.6020   0.7890   1.0509   1.2788   1.4887   1.6053   1.9375
     2.1911   2.2838   2.6856   2.8193   2.9450   3.0529   3.7834   4.2538
     4.6908

          k = 0.0005 0.3770-0.3776 ( 11190 PWs)   bands (ev):

   -48.8557 -48.8554 -45.3982 -27.0901 -24.7508 -23.5478 -23.5362 -23.3173
   -20.9001 -20.8914 -20.7338 -20.7334 -20.6968 -20.6964 -17.4233 -17.3969
   -17.3274 -17.2925 -17.2753 -14.2589 -14.0337 -13.9313 -12.4868 -12.2824
   -11.7626 -10.9952 -10.4436 -10.3416  -6.6487  -6.4713  -6.1394  -2.6617
     0.4865   0.5455   0.7816   1.1457   1.3797   1.6296   1.8265   2.0619
     2.3212   2.3675   2.7274   2.8632   2.9484   3.1027   3.7043   4.3078
     4.3832

          k = 0.3781 0.0000-0.3781 ( 11190 PWs)   bands (ev):

   -48.8557 -48.8554 -45.3982 -27.0901 -24.7508 -23.5478 -23.5362 -23.3173
   -20.9001 -20.8914 -20.7344 -20.7328 -20.6972 -20.6960 -17.4232 -17.3971
   -17.3274 -17.2925 -17.2750 -14.2676 -14.0440 -13.9215 -12.4858 -12.2804
   -11.7379 -11.0062 -10.4456 -10.3442  -6.6460  -6.4615  -6.1527  -2.6595
     0.4912   0.5401   0.7488   1.1688   1.4184   1.5991   1.7879   2.0149
     2.3337   2.4128   2.7141   2.8522   2.9674   3.0868   3.6970   4.3178
     4.4131

          k =-0.3781-0.0011-0.3781 ( 11190 PWs)   bands (ev):

   -48.8557 -48.8554 -45.3982 -27.0901 -24.7508 -23.5478 -23.5362 -23.3173
   -20.9001 -20.8915 -20.7344 -20.7328 -20.6973 -20.6959 -17.4233 -17.3970
   -17.3274 -17.2925 -17.2751 -14.2660 -14.0445 -13.9222 -12.4838 -12.2800
   -11.7456 -11.0007 -10.4442 -10.3456  -6.6457  -6.4627  -6.1521  -2.6596
     0.4879   0.5442   0.7073   1.1620   1.4667   1.5656   1.8370   2.0519
     2.3290   2.3828   2.7640   2.8145   3.0133   3.0332   3.7017   4.3480
     4.4070

          k =-0.1888 0.1882-0.1888 ( 11200 PWs)   bands (ev):

   -48.8557 -48.8554 -45.3982 -27.0901 -24.7513 -23.5478 -23.5361 -23.3171
   -20.9002 -20.8915 -20.7337 -20.7335 -20.6970 -20.6962 -17.4233 -17.3968
   -17.3274 -17.2925 -17.2755 -14.2103 -13.9610 -13.9481 -12.4416 -12.4393
   -11.8762 -10.9969 -10.4432 -10.3467  -6.4580  -6.2456  -6.2392  -2.6320
     0.5449   0.6175   0.8532   1.1904   1.2418   1.4113   1.4622   1.8637
     2.2027   2.2054   2.4350   2.7408   2.9567   3.0331   3.8154   4.4598
     5.0290

          k = 0.1888-0.1887-0.1893 ( 11200 PWs)   bands (ev):

   -48.8557 -48.8554 -45.3982 -27.0901 -24.7514 -23.5477 -23.5361 -23.3170
   -20.9001 -20.8915 -20.7343 -20.7330 -20.6969 -20.6964 -17.4233 -17.3968
   -17.3274 -17.2925 -17.2753 -14.2152 -13.9594 -13.9462 -12.4475 -12.4397
   -11.8583 -11.0084 -10.4463 -10.3435  -6.4566  -6.2501  -6.2352  -2.6328
     0.5439   0.6220   0.8871   1.1766   1.2391   1.3775   1.4768   1.8350
     2.1846   2.2391   2.4284   2.7396   2.9712   3.0340   3.8157   4.4251
     5.0550

          k =-0.1888 0.1879-0.3779 ( 11163 PWs)   bands (ev):

   -48.8557 -48.8554 -45.3982 -27.0901 -24.7509 -23.5478 -23.5362 -23.3172
   -20.9001 -20.8914 -20.7340 -20.7331 -20.6970 -20.6960 -17.4232 -17.3969
   -17.3273 -17.2925 -17.2754 -14.2453 -14.0068 -13.9509 -12.4419 -12.3462
   -11.7987 -10.9943 -10.4427 -10.3439  -6.6007  -6.3324  -6.2427  -2.6486
     0.4649   0.5612   0.8202   1.2677   1.3006   1.5818   1.7062   1.9685
     2.2200   2.3081   2.7176   2.8162   2.9236   3.0569   3.7349   4.2984
     4.5367

          k = 0.1888-0.1890-0.3784 ( 11163 PWs)   bands (ev):

   -48.8557 -48.8555 -45.3982 -27.0901 -24.7509 -23.5478 -23.5362 -23.3172
   -20.9000 -20.8913 -20.7342 -20.7329 -20.6969 -20.6961 -17.4232 -17.3969
   -17.3273 -17.2925 -17.2752 -14.2482 -14.0060 -13.9497 -12.4449 -12.3471
   -11.7869 -11.0022 -10.4448 -10.3417  -6.5999  -6.3325  -6.2430  -2.6490
     0.4612   0.5649   0.8418   1.2670   1.2932   1.5515   1.7198   1.9426
     2.2285   2.3274   2.7033   2.8270   2.9289   3.0497   3.7349   4.2878
     4.5560

          k = 0.1893 0.1885-0.3779 ( 11163 PWs)   bands (ev):

   -48.8557 -48.8555 -45.3982 -27.0901 -24.7509 -23.5478 -23.5362 -23.3172
   -20.9000 -20.8913 -20.7342 -20.7329 -20.6969 -20.6961 -17.4233 -17.3969
   -17.3273 -17.2925 -17.2752 -14.2484 -14.0054 -13.9500 -12.4439 -12.3482
   -11.7866 -11.0024 -10.4448 -10.3417  -6.6003  -6.3293  -6.2458  -2.6586
     0.5161   0.5449   0.8687   1.2106   1.4508   1.4966   1.6574   1.9895
     2.1591   2.3075   2.6998   2.7944   2.9711   3.0190   3.7431   4.2954
     4.6296

          k =-0.1885 0.3775 0.1896 ( 11163 PWs)   bands (ev):

   -48.8557 -48.8554 -45.3982 -27.0901 -24.7510 -23.5478 -23.5362 -23.3171
   -20.9000 -20.8913 -20.7343 -20.7328 -20.6968 -20.6963 -17.4234 -17.3969
   -17.3274 -17.2925 -17.2752 -14.2467 -13.9962 -13.9585 -12.4408 -12.3543
   -11.7810 -11.0087 -10.4467 -10.3434  -6.5995  -6.3364  -6.2351  -2.6576
     0.4623   0.5694   0.8763   1.2427   1.2988   1.5480   1.7127   1.9637
     2.2399   2.3120   2.7123   2.8199   2.9246   3.0722   3.7356   4.2811
     4.6505

          k =-0.1896-0.3780-0.1896 ( 11163 PWs)   bands (ev):

   -48.8557 -48.8554 -45.3982 -27.0901 -24.7509 -23.5478 -23.5362 -23.3173
   -20.9001 -20.8913 -20.7335 -20.7334 -20.6969 -20.6963 -17.4233 -17.3968
   -17.3273 -17.2925 -17.2753 -14.2426 -13.9977 -13.9605 -12.4396 -12.3488
   -11.8000 -10.9959 -10.4436 -10.3467  -6.5986  -6.3347  -6.2385  -2.6567
     0.5223   0.5502   0.7732   1.2227   1.4662   1.4845   1.7051   2.0317
     2.2184   2.2436   2.7342   2.8573   2.9160   2.9883   3.7558   4.3504
     4.6323

          k = 0.1885-0.3770 0.1885 ( 11163 PWs)   bands (ev):

   -48.8557 -48.8554 -45.3982 -27.0901 -24.7509 -23.5478 -23.5362 -23.3172
   -20.9002 -20.8913 -20.7337 -20.7334 -20.6969 -20.6961 -17.4233 -17.3968
   -17.3273 -17.2925 -17.2754 -14.2423 -13.9973 -13.9607 -12.4393 -12.3497
   -11.7998 -10.9959 -10.4436 -10.3467  -6.6003  -6.3329  -6.2386  -2.6562
     0.5298   0.5304   0.8542   1.2133   1.4430   1.4665   1.6701   2.0072
     2.1844   2.2908   2.7004   2.7980   2.9787   3.0317   3.7427   4.3039
     4.7266

          k =-0.1885 0.3767-0.3776 ( 11170 PWs)   bands (ev):

   -48.8557 -48.8554 -45.3982 -27.0901 -24.7505 -23.5479 -23.5362 -23.3173
   -20.9001 -20.8914 -20.7339 -20.7332 -20.6970 -20.6960 -17.4233 -17.3970
   -17.3273 -17.2925 -17.2754 -14.2695 -14.0345 -13.9797 -12.3994 -12.2820
   -11.7376 -10.9932 -10.4431 -10.3438  -6.6578  -6.4702  -6.2767  -2.6736
     0.4338   0.4876   0.8671   1.3292   1.5364   1.6214   1.9269   2.0448
     2.3325   2.3786   2.7415   2.8410   3.0010   3.0973   3.6551   4.3184
     4.4154

          k = 0.1885-0.3778-0.3787 ( 11170 PWs)   bands (ev):

   -48.8557 -48.8555 -45.3982 -27.0901 -24.7506 -23.5478 -23.5362 -23.3172
   -20.9001 -20.8913 -20.7342 -20.7329 -20.6970 -20.6962 -17.4234 -17.3970
   -17.3274 -17.2925 -17.2752 -14.2722 -14.0335 -13.9785 -12.4009 -12.2846
   -11.7248 -11.0020 -10.4452 -10.3416  -6.6567  -6.4718  -6.2756  -2.6745
     0.4073   0.4994   0.8778   1.3275   1.5331   1.5863   1.9874   2.0218
     2.3502   2.3906   2.7561   2.8325   3.0227   3.0797   3.6509   4.3482
     4.3969

          k = 0.3784 0.1887-0.3779 ( 11170 PWs)   bands (ev):

   -48.8557 -48.8554 -45.3982 -27.0901 -24.7506 -23.5478 -23.5362 -23.3173
   -20.9001 -20.8913 -20.7345 -20.7327 -20.6972 -20.6959 -17.4233 -17.3971
   -17.3273 -17.2925 -17.2750 -14.2769 -14.0439 -13.9685 -12.4030 -12.2803
   -11.7125 -11.0063 -10.4458 -10.3441  -6.6558  -6.4613  -6.2877  -2.6765
     0.4299   0.4850   0.8818   1.3393   1.5524   1.6098   1.8718   2.0294
     2.3603   2.4060   2.7292   2.8316   3.0067   3.0842   3.6522   4.3418
     4.4325

          k =-0.3784-0.1898-0.3784 ( 11170 PWs)   bands (ev):

   -48.8557 -48.8554 -45.3982 -27.0901 -24.7505 -23.5478 -23.5362 -23.3173
   -20.9001 -20.8914 -20.7343 -20.7328 -20.6972 -20.6959 -17.4234 -17.3971
   -17.3273 -17.2925 -17.2750 -14.2754 -14.0444 -13.9693 -12.4006 -12.2800
   -11.7206 -11.0006 -10.4444 -10.3456  -6.6550  -6.4624  -6.2877  -2.6823
     0.4524   0.4811   0.8489   1.3754   1.5937   1.6041   1.8666   2.0563
     2.3375   2.3698   2.8059   2.8311   2.9726   3.0101   3.6685   4.3540
     4.4689

          k = 0.3779-0.1877 0.3779 ( 11170 PWs)   bands (ev):

   -48.8557 -48.8554 -45.3982 -27.0901 -24.7506 -23.5478 -23.5362 -23.3173
   -20.9001 -20.8914 -20.7343 -20.7328 -20.6971 -20.6959 -17.4233 -17.3970
   -17.3273 -17.2925 -17.2751 -14.2750 -14.0446 -13.9693 -12.4010 -12.2798
   -11.7208 -11.0005 -10.4444 -10.3456  -6.6560  -6.4625  -6.2865  -2.6704
     0.4135   0.4875   0.8412   1.3380   1.5309   1.6180   1.9515   2.0219
     2.3500   2.3974   2.7507   2.8189   3.0435   3.0764   3.6469   4.3908
     4.3965

          k =-0.3776 0.3772 0.1896 ( 11170 PWs)   bands (ev):

   -48.8557 -48.8555 -45.3982 -27.0901 -24.7506 -23.5478 -23.5362 -23.3172
   -20.9001 -20.8913 -20.7342 -20.7329 -20.6970 -20.6962 -17.4234 -17.3970
   -17.3274 -17.2925 -17.2752 -14.2723 -14.0331 -13.9788 -12.4004 -12.2852
   -11.7246 -11.0021 -10.4451 -10.3416  -6.6571  -6.4708  -6.2763  -2.6803
     0.4264   0.4969   0.9012   1.3219   1.5364   1.6278   1.9062   2.0585
     2.3292   2.3887   2.7336   2.8450   2.9825   3.1029   3.6557   4.3122
     4.4218

          k =-0.3776 0.3764-0.3776 ( 11215 PWs)   bands (ev):

   -48.8557 -48.8554 -45.3982 -27.0901 -24.7503 -23.5479 -23.5363 -23.3173
   -20.9003 -20.8915 -20.7344 -20.7329 -20.6973 -20.6960 -17.4234 -17.3971
   -17.3274 -17.2925 -17.2752 -14.2948 -14.0445 -14.0298 -12.2865 -12.2796
   -11.6673 -11.0001 -10.4448 -10.3455  -6.7003  -6.4713  -6.4621  -2.6991
     0.3963   0.4013   0.9175   1.5419   1.5657   1.9945   2.0121   2.0819
     2.4242   2.4374   2.7826   2.8006   3.1086   3.1388   3.5597   4.3006
     4.4289

          k = 0.3776-0.3775-0.3787 ( 11215 PWs)   bands (ev):

   -48.8557 -48.8554 -45.3982 -27.0901 -24.7503 -23.5479 -23.5363 -23.3173
   -20.9003 -20.8915 -20.7345 -20.7328 -20.6973 -20.6961 -17.4235 -17.3971
   -17.3274 -17.2925 -17.2751 -14.2966 -14.0440 -14.0289 -12.2890 -12.2798
   -11.6583 -11.0066 -10.4462 -10.3441  -6.6997  -6.4728  -6.4607  -2.7031
     0.3800   0.4165   0.9453   1.5406   1.5598   1.9468   2.0370   2.0932
     2.4354   2.4510   2.7773   2.7937   3.1038   3.1314   3.5608   4.3125
     4.4226

     highest occupied level (ev):     5.3291

!    total energy              =   -1442.22898058 Ry
     total all-electron energy =     -1442.228981 Ry
     estimated scf accuracy    <          7.3E-11 Ry

     The total energy is the sum of the following terms:
     one-electron contribution =    -535.38103853 Ry
     hartree contribution      =     311.07434873 Ry
     xc contribution           =    -128.21688586 Ry
     ewald contribution        =    -367.30465964 Ry
     one-center paw contrib.   =    -722.40074529 Ry

     convergence has been achieved in  46 iterations

     Forces acting on atoms (cartesian axes, Ry/au):

     atom    1 type  2   force =     0.02649793    0.01836346    0.02649793
     atom    2 type  1   force =     0.00423464    0.00696725   -0.00509320
[...]

     total cpu time spent up to now is     7552.4 secs

     total energy              =   -1443.54078770 Ry
     estimated scf accuracy    <       0.00000062 Ry

     iteration #360     ecut=    60.00 Ry     beta= 0.70
     Davidson diagonalization with overlap
     ethr =  1.99E-13,  avg # of iterations =  7.3

     total cpu time spent up to now is     7561.8 secs

     total energy              =   -1443.54078770 Ry
     estimated scf accuracy    <       0.00000070 Ry

     iteration #361     ecut=    60.00 Ry     beta= 0.70
     Davidson diagonalization with overlap
     ethr =  1.99E-13,  avg # of iterations =  7.4

     total cpu time spent up to now is     7571.8 secs

     total energy              =   -1443.54078769 Ry
     estimated scf accuracy    <       0.00000061 Ry

     iteration #362     ecut=    60.00 Ry     beta= 0.70
     Davidson diagonalization with overlap
     ethr =  1.99E-13,  avg # of iterations =  3.7

     total cpu time spent up to now is     7577.7 secs

     total energy              =   -1443.54078760 Ry
     estimated scf accuracy    <       0.00000060 Ry

     iteration #363     ecut=    60.00 Ry     beta= 0.70
     Davidson diagonalization with overlap
     c_bands:  1 eigenvalues not converged
     c_bands:  1 eigenvalues not converged
     c_bands:  1 eigenvalues not converged
     c_bands:  1 eigenvalues not converged
     c_bands:  1 eigenvalues not converged
     c_bands:  1 eigenvalues not converged
     c_bands:  1 eigenvalues not converged
     c_bands:  1 eigenvalues not converged
     ethr =  1.99E-13,  avg # of iterations = 18.5

     total cpu time spent up to now is     7596.0 secs

     total energy              =   -1443.54078766 Ry
     estimated scf accuracy    <       0.00012105 Ry

     iteration #364     ecut=    60.00 Ry     beta= 0.70
     Davidson diagonalization with overlap
     c_bands:  1 eigenvalues not converged
     c_bands:  1 eigenvalues not converged
     c_bands:  1 eigenvalues not converged
     c_bands:  1 eigenvalues not converged
     c_bands:  1 eigenvalues not converged
     c_bands:  1 eigenvalues not converged
     ethr =  1.99E-13,  avg # of iterations = 18.2

     total cpu time spent up to now is     7614.0 secs

     total energy              =   -1443.54078764 Ry
     estimated scf accuracy    <       0.00010585 Ry

     iteration #365     ecut=    60.00 Ry     beta= 0.70
     Davidson diagonalization with overlap
     ethr =  1.99E-13,  avg # of iterations =  7.4

     total cpu time spent up to now is     7622.3 secs

     total energy              =   -1443.54078766 Ry
     estimated scf accuracy    <       0.00010530 Ry

     iteration #366     ecut=    60.00 Ry     beta= 0.70
     Davidson diagonalization with overlap
     ethr =  1.99E-13,  avg # of iterations =  2.4

     total cpu time spent up to now is     7627.7 secs

     total energy              =   -1443.54078772 Ry
     estimated scf accuracy    <       0.00010541 Ry

     iteration #367     ecut=    60.00 Ry     beta= 0.70
     Davidson diagonalization with overlap
     ethr =  1.99E-13,  avg # of iterations =  7.3

     total cpu time spent up to now is     7637.0 secs

     total energy              =   -1443.54078766 Ry
     estimated scf accuracy    <       0.00010635 Ry

     iteration #368     ecut=    60.00 Ry     beta= 0.70
     Davidson diagonalization with overlap
     ethr =  1.99E-13,  avg # of iterations =  7.2

     total cpu time spent up to now is     7645.8 secs

     total energy              =   -1443.54078763 Ry
     estimated scf accuracy    <       0.00010563 Ry

     iteration #369     ecut=    60.00 Ry     beta= 0.70
     Davidson diagonalization with overlap
     ethr =  1.99E-13,  avg # of iterations =  7.9

     total cpu time spent up to now is     7653.6 secs

     total energy              =   -1443.54078770 Ry
     estimated scf accuracy    <       0.00010528 Ry

     iteration #370     ecut=    60.00 Ry     beta= 0.70
     Davidson diagonalization with overlap
     ethr =  1.99E-13,  avg # of iterations =  7.2

     total cpu time spent up to now is     7662.6 secs

     total energy              =   -1443.54078772 Ry
     estimated scf accuracy    <       0.00010606 Ry

     iteration #371     ecut=    60.00 Ry     beta= 0.70
     Davidson diagonalization with overlap
     ethr =  1.99E-13,  avg # of iterations =  2.7

     total cpu time spent up to now is     7668.1 secs

     total energy              =   -1443.54077199 Ry
     estimated scf accuracy    <       0.00010619 Ry

     iteration #372     ecut=    60.00 Ry     beta= 0.70
     Davidson diagonalization with overlap
     c_bands:  1 eigenvalues not converged
     c_bands:  2 eigenvalues not converged
     c_bands:  3 eigenvalues not converged
     c_bands:  2 eigenvalues not converged
     c_bands:  2 eigenvalues not converged
     c_bands:  2 eigenvalues not converged
     c_bands:  1 eigenvalues not converged
     c_bands:  3 eigenvalues not converged
     c_bands:  2 eigenvalues not converged
     c_bands:  2 eigenvalues not converged
     c_bands:  1 eigenvalues not converged
     c_bands:  1 eigenvalues not converged
     c_bands:  1 eigenvalues not converged
     c_bands:  1 eigenvalues not converged
     c_bands:  2 eigenvalues not converged
     c_bands:  1 eigenvalues not converged
     c_bands:  2 eigenvalues not converged
     c_bands:  2 eigenvalues not converged
     c_bands:  1 eigenvalues not converged
     c_bands:  2 eigenvalues not converged
     c_bands:  2 eigenvalues not converged
     c_bands:  1 eigenvalues not converged
     c_bands:  1 eigenvalues not converged
     c_bands:  1 eigenvalues not converged
     c_bands:  1 eigenvalues not converged
     c_bands:  2 eigenvalues not converged
     c_bands:  2 eigenvalues not converged
     c_bands:  2 eigenvalues not converged
     c_bands:  1 eigenvalues not converged
     c_bands:  1 eigenvalues not converged
     c_bands:  2 eigenvalues not converged
     c_bands:  2 eigenvalues not converged
     c_bands:  2 eigenvalues not converged
     c_bands:  1 eigenvalues not converged
     c_bands:  1 eigenvalues not converged
     c_bands:  2 eigenvalues not converged
     c_bands:  1 eigenvalues not converged
     c_bands:  3 eigenvalues not converged
     ethr =  1.99E-13,  avg # of iterations = 20.0

     total cpu time spent up to now is     7692.3 secs

     total energy              =   -1443.54079461 Ry
     estimated scf accuracy    <       0.00011861 Ry

     iteration #373     ecut=    60.00 Ry     beta= 0.70
     Davidson diagonalization with overlap
     ethr =  1.99E-13,  avg # of iterations = 17.2

     total cpu time spent up to now is     7713.7 secs

     total energy              =   -1443.54079163 Ry
     estimated scf accuracy    <       0.00008429 Ry

     iteration #374     ecut=    60.00 Ry     beta= 0.70
     Davidson diagonalization with overlap
     ethr =  1.99E-13,  avg # of iterations = 17.3

     total cpu time spent up to now is     7735.9 secs

     total energy              =   -1443.54079015 Ry
     estimated scf accuracy    <       0.00005018 Ry

     iteration #375     ecut=    60.00 Ry     beta= 0.70
     Davidson diagonalization with overlap
     ethr =  1.99E-13,  avg # of iterations = 17.5

     total cpu time spent up to now is     7757.0 secs

     total energy              =   -1443.54078945 Ry
     estimated scf accuracy    <       0.00003109 Ry

     iteration #376     ecut=    60.00 Ry     beta= 0.70
     Davidson diagonalization with overlap
     c_bands:  1 eigenvalues not converged
     ethr =  1.99E-13,  avg # of iterations = 18.1

     total cpu time spent up to now is     7775.8 secs

     total energy              =   -1443.54078855 Ry
     estimated scf accuracy    <       0.00002182 Ry

     iteration #377     ecut=    60.00 Ry     beta= 0.70
     Davidson diagonalization with overlap
     ethr =  1.99E-13,  avg # of iterations = 17.6

     total cpu time spent up to now is     7795.8 secs

     total energy              =   -1443.54078839 Ry
     estimated scf accuracy    <       0.00001180 Ry

     iteration #378     ecut=    60.00 Ry     beta= 0.70
     Davidson diagonalization with overlap
     c_bands:  1 eigenvalues not converged
     c_bands:  1 eigenvalues not converged
     c_bands:  1 eigenvalues not converged
     c_bands:  1 eigenvalues not converged
     c_bands:  1 eigenvalues not converged
     c_bands:  1 eigenvalues not converged
     c_bands:  1 eigenvalues not converged
     ethr =  1.99E-13,  avg # of iterations = 18.5

     total cpu time spent up to now is     7812.2 secs

     total energy              =   -1443.54078806 Ry
     estimated scf accuracy    <       0.00000888 Ry

     iteration #379     ecut=    60.00 Ry     beta= 0.70
     Davidson diagonalization with overlap
     c_bands:  1 eigenvalues not converged
     c_bands:  1 eigenvalues not converged
     c_bands:  1 eigenvalues not converged
     c_bands:  1 eigenvalues not converged
     c_bands:  1 eigenvalues not converged
     c_bands:  1 eigenvalues not converged
     c_bands:  1 eigenvalues not converged
     ethr =  1.99E-13,  avg # of iterations = 18.3

     total cpu time spent up to now is     7829.9 secs

     total energy              =   -1443.54078802 Ry
     estimated scf accuracy    <       0.00000524 Ry

     iteration #380     ecut=    60.00 Ry     beta= 0.70
     Davidson diagonalization with overlap
     ethr =  1.99E-13,  avg # of iterations =  7.8

     total cpu time spent up to now is     7842.7 secs

     total energy              =   -1443.54078736 Ry
     estimated scf accuracy    <       0.00000446 Ry

     iteration #381     ecut=    60.00 Ry     beta= 0.70
     Davidson diagonalization with overlap
     c_bands:  1 eigenvalues not converged
     ethr =  1.99E-13,  avg # of iterations = 17.0

     total cpu time spent up to now is     7864.9 secs

     total energy              =   -1443.54078622 Ry
     estimated scf accuracy    <       0.00012032 Ry

     iteration #382     ecut=    60.00 Ry     beta= 0.70
     Davidson diagonalization with overlap
     c_bands:  1 eigenvalues not converged
     ethr =  1.99E-13,  avg # of iterations = 17.3

     total cpu time spent up to now is     7885.9 secs

     total energy              =   -1443.54078781 Ry
     estimated scf accuracy    <       0.00000225 Ry

     iteration #383     ecut=    60.00 Ry     beta= 0.70
     Davidson diagonalization with overlap
     ethr =  1.99E-13,  avg # of iterations =  7.7

     total cpu time spent up to now is     7897.5 secs

     total energy              =   -1443.54078772 Ry
     estimated scf accuracy    <       0.00000195 Ry

     iteration #384     ecut=    60.00 Ry     beta= 0.70
     Davidson diagonalization with overlap
     c_bands:  1 eigenvalues not converged
     c_bands:  1 eigenvalues not converged
     c_bands:  1 eigenvalues not converged
     c_bands:  1 eigenvalues not converged
     c_bands:  1 eigenvalues not converged
     c_bands:  1 eigenvalues not converged
     c_bands:  1 eigenvalues not converged
     c_bands:  1 eigenvalues not converged
     ethr =  1.99E-13,  avg # of iterations = 13.4

     total cpu time spent up to now is     7911.1 secs

     total energy              =   -1443.54078773 Ry
     estimated scf accuracy    <       0.00000105 Ry

     iteration #385     ecut=    60.00 Ry     beta= 0.70
     Davidson diagonalization with overlap
     ethr =  1.99E-13,  avg # of iterations =  2.4

     total cpu time spent up to now is     7916.4 secs

     total energy              =   -1443.54078774 Ry
     estimated scf accuracy    <       0.00000104 Ry

     iteration #386     ecut=    60.00 Ry     beta= 0.70
     Davidson diagonalization with overlap
     ethr =  1.99E-13,  avg # of iterations =  6.5

     total cpu time spent up to now is     7924.6 secs

     total energy              =   -1443.54078772 Ry
     estimated scf accuracy    <       0.00000110 Ry

     iteration #387     ecut=    60.00 Ry     beta= 0.70
     Davidson diagonalization with overlap
     ethr =  1.99E-13,  avg # of iterations =  7.9

     total cpu time spent up to now is     7936.8 secs

     total energy              =   -1443.54078771 Ry
     estimated scf accuracy    <       0.00000086 Ry

     iteration #388     ecut=    60.00 Ry     beta= 0.70
     Davidson diagonalization with overlap
     ethr =  1.99E-13,  avg # of iterations =  7.2

     total cpu time spent up to now is     7947.4 secs

     total energy              =   -1443.54078770 Ry
     estimated scf accuracy    <       0.00000073 Ry

     iteration #389     ecut=    60.00 Ry     beta= 0.70
     Davidson diagonalization with overlap
     ethr =  1.99E-13,  avg # of iterations =  5.5

     total cpu time spent up to now is     7954.0 secs

     total energy              =   -1443.54078772 Ry
     estimated scf accuracy    <       0.00000071 Ry

     iteration #390     ecut=    60.00 Ry     beta= 0.70
     Davidson diagonalization with overlap
     ethr =  1.99E-13,  avg # of iterations =  7.8

     total cpu time spent up to now is     7966.1 secs

     total energy              =   -1443.54078758 Ry
     estimated scf accuracy    <       0.00000093 Ry

     iteration #391     ecut=    60.00 Ry     beta= 0.70
     Davidson diagonalization with overlap
     c_bands:  1 eigenvalues not converged
     c_bands:  1 eigenvalues not converged
     ethr =  1.99E-13,  avg # of iterations = 18.0

     total cpu time spent up to now is     7985.3 secs

     total energy              =   -1443.54078699 Ry
     estimated scf accuracy    <       0.00012103 Ry

     iteration #392     ecut=    60.00 Ry     beta= 0.70
     Davidson diagonalization with overlap
     c_bands:  1 eigenvalues not converged
     ethr =  1.99E-13,  avg # of iterations = 17.7

     total cpu time spent up to now is     8005.0 secs

     total energy              =   -1443.54078771 Ry
     estimated scf accuracy    <       0.00000117 Ry

     iteration #393     ecut=    60.00 Ry     beta= 0.70
     Davidson diagonalization with overlap
     ethr =  1.99E-13,  avg # of iterations =  8.1

     total cpu time spent up to now is     8018.3 secs

     total energy              =   -1443.54078771 Ry
     estimated scf accuracy    <       0.00000082 Ry

     iteration #394     ecut=    60.00 Ry     beta= 0.70
     Davidson diagonalization with overlap
     ethr =  1.99E-13,  avg # of iterations =  7.1

     total cpu time spent up to now is     8026.4 secs

     total energy              =   -1443.54078771 Ry
     estimated scf accuracy    <       0.00000077 Ry

     iteration #395     ecut=    60.00 Ry     beta= 0.70
     Davidson diagonalization with overlap
     ethr =  1.99E-13,  avg # of iterations =  1.0

     total cpu time spent up to now is     8031.2 secs

     total energy              =   -1443.54078771 Ry
     estimated scf accuracy    <       0.00000077 Ry

     iteration #396     ecut=    60.00 Ry     beta= 0.70
     Davidson diagonalization with overlap
     ethr =  1.99E-13,  avg # of iterations =  7.5

     total cpu time spent up to now is     8038.9 secs

     total energy              =   -1443.54078770 Ry
     estimated scf accuracy    <       0.00000074 Ry

     iteration #397     ecut=    60.00 Ry     beta= 0.70
     Davidson diagonalization with overlap
     ethr =  1.99E-13,  avg # of iterations =  8.3

     total cpu time spent up to now is     8047.1 secs

     total energy              =   -1443.54078770 Ry
     estimated scf accuracy    <       0.00000071 Ry

     iteration #398     ecut=    60.00 Ry     beta= 0.70
     Davidson diagonalization with overlap
     ethr =  1.99E-13,  avg # of iterations =  2.0

     total cpu time spent up to now is     8052.4 secs

     total energy              =   -1443.54078771 Ry
     estimated scf accuracy    <       0.00000070 Ry

     iteration #399     ecut=    60.00 Ry     beta= 0.70
     Davidson diagonalization with overlap
     ethr =  1.99E-13,  avg # of iterations =  2.6

     total cpu time spent up to now is     8057.9 secs

     total energy              =   -1443.54078770 Ry
     estimated scf accuracy    <       0.00000071 Ry

     iteration #400     ecut=    60.00 Ry     beta= 0.70
     Davidson diagonalization with overlap
     ethr =  1.99E-13,  avg # of iterations =  2.5

     total cpu time spent up to now is     8063.4 secs

     total energy              =   -1443.54078760 Ry
     estimated scf accuracy    <       0.00000070 Ry

     End of self-consistent calculation

     convergence NOT achieved after 400 iterations: stopping

     Writing config to output data dir ./K4ZrSnO6.save/

     init_run     :     17.18s CPU     17.36s WALL (       1 calls)
     electrons    :   7441.06s CPU   7657.36s WALL (      10 calls)
     update_pot   :    137.65s CPU    137.98s WALL (       9 calls)
     forces       :     79.11s CPU     79.85s WALL (       9 calls)
     stress       :    159.67s CPU    161.25s WALL (       9 calls)

     Called by init_run:
     wfcinit      :      3.81s CPU      3.90s WALL (       1 calls)
     potinit      :      4.33s CPU      4.35s WALL (       1 calls)
     hinit0       :      8.75s CPU      8.78s WALL (       1 calls)

     Called by electrons:
     c_bands      :   6139.71s CPU   6254.91s WALL (     851 calls)
     sum_band     :    672.88s CPU    727.85s WALL (     851 calls)
     v_of_rho     :     23.37s CPU     24.23s WALL (     861 calls)
     newd         :    176.08s CPU    217.12s WALL (     861 calls)
     PAW_pot      :    433.46s CPU    436.63s WALL (     870 calls)
     mix_rho      :      4.50s CPU      4.70s WALL (     851 calls)

     Called by c_bands:
     init_us_2    :     53.93s CPU     55.67s WALL (   67470 calls)
     init_us_2:cp :     53.70s CPU     55.52s WALL (   67470 calls)
     cegterg      :   5970.30s CPU   6082.57s WALL (   33189 calls)

     Called by *egterg:
     cdiaghg      :   2288.89s CPU   2318.28s WALL (  243882 calls)
     h_psi        :   2500.80s CPU   2563.59s WALL (  244272 calls)
     s_psi        :    234.51s CPU    237.15s WALL (  244272 calls)
     g_psi        :     42.79s CPU     43.14s WALL (  211044 calls)

     Called by h_psi:
     h_psi:calbec :    282.01s CPU    294.35s WALL (  244272 calls)
     vloc_psi     :   1960.68s CPU   2008.22s WALL (  244272 calls)
     add_vuspsi   :    243.53s CPU    246.45s WALL (  244272 calls)

     General routines
     calbec       :    365.22s CPU    382.08s WALL (  279567 calls)
     fft          :     11.66s CPU     12.69s WALL (   11409 calls)
     ffts         :      1.12s CPU      1.17s WALL (    1712 calls)
     fftw         :   2030.70s CPU   2079.38s WALL (11175807 calls)
     interpolate  :      1.81s CPU      1.94s WALL (     861 calls)
     davcio       :      0.00s CPU      0.01s WALL (      57 calls)

     Parallel routines

     PWSCF        :      2h10m CPU      2h14m WALL


   This run was terminated on:   4:55:21   1Dec2025            

=------------------------------------------------------------------------------=
   JOB DONE.
=------------------------------------------------------------------------------=
STOP 255
STOP 255
STOP 255
STOP 255
STOP 255
STOP 255
STOP 255
STOP 255
STOP 255
STOP 255
STOP 255
STOP 255
STOP 255
STOP 255
STOP 255
--------------------------------------------------------------------------
Primary job  terminated normally, but 1 process returned
a non-zero exit code. Per user-direction, the job has been aborted.
--------------------------------------------------------------------------
STOP 255
--------------------------------------------------------------------------
mpirun detected that one or more processes exited with non-zero status, thus causing
the job to be terminated. The first process to do so was:

  Process name: [[59712,1],10]
  Exit code:    255
--------------------------------------------------------------------------
