
     Program PWSCF v.7.1 starts on 30Nov2025 at  3: 6:23 

     This program is part of the open-source Quantum ESPRESSO suite
     for quantum simulation of materials; please cite
         "P. Giannozzi et al., J. Phys.:Condens. Matter 21 395502 (2009);
         "P. Giannozzi et al., J. Phys.:Condens. Matter 29 465901 (2017);
         "P. Giannozzi et al., J. Chem. Phys. 152 154105 (2020);
          URL http://www.quantum-espresso.org", 
     in publications or presentations arising from this work. More details at
     http://www.quantum-espresso.org/quote

     Parallel version (MPI & OpenMP), running on      16 processor cores
     Number of MPI processes:                16
     Threads/MPI process:                     1

     MPI processes distributed on     1 nodes
     53648 MiB available memory on the printing compute node when the environment starts

     Waiting for input...
     Reading input from standard input

     Current dimensions of program PWSCF are:
     Max number of different atomic species (ntypx) = 10
     Max number of k-points (npk) =  40000
     Max angular momentum in pseudopotentials (lmaxx) =  4
     Message from routine read_pp_mesh:
     mismatch in mesh size, discarding the one in header
     Message from routine read_pp_mesh:
     mismatch in mesh size, discarding the one in header
     Message from routine read_pp_mesh:
     mismatch in mesh size, discarding the one in header
     Message from routine read_pp_mesh:
     mismatch in mesh size, discarding the one in header
     Message from routine setup:
     using ibrav=0 with symmetry is DISCOURAGED, use correct ibrav instead

     R & G space division:  proc/nbgrp/npool/nimage =      16
     Subspace diagonalization in iterative solution of the eigenvalue problem:
     a serial algorithm will be used


     Parallelization info
     --------------------
     sticks:   dense  smooth     PW     G-vecs:    dense   smooth      PW
     Min         302     151     41                15818     5573     784
     Max         304     152     43                15821     5577     786
     Sum        4849    2417    665               253119    89199   12557

     Using Slab Decomposition



     bravais-lattice index     =            0
     lattice parameter (alat)  =      11.2511  a.u.
     unit-cell volume          =    1424.2554 (a.u.)^3
     number of atoms/cell      =           12
     number of atomic types    =            4
     number of electrons       =        98.00
     number of Kohn-Sham states=           49
     kinetic-energy cutoff     =      60.0000  Ry
     charge density cutoff     =     480.0000  Ry
     scf convergence threshold =      1.0E-10
     mixing beta               =       0.7000
     number of iterations used =            8  plain     mixing
     Exchange-correlation= SLA PW PBX PBC
                           (   1   4   3   4   0   0   0)

     celldm(1)=  11.251125  celldm(2)=   0.000000  celldm(3)=   0.000000
     celldm(4)=   0.000000  celldm(5)=   0.000000  celldm(6)=   0.000000

     crystal axes: (cart. coord. in units of alat)
               a(1) = (   1.000000   0.000000   0.000000 )  
               a(2) = (   0.000000   1.000000   0.000000 )  
               a(3) = (   0.000000   0.000000   1.000000 )  

     reciprocal axes: (cart. coord. in units 2 pi/alat)
               b(1) = (  1.000000  0.000000  0.000000 )  
               b(2) = (  0.000000  1.000000  0.000000 )  
               b(3) = (  0.000000  0.000000  1.000000 )  


     PseudoPot. # 1 for K  read from file:
     ./K.upf
     MD5 check sum: 9356cfae17991a8ac93a0af773ad5d28
     Pseudo is Projector augmented-wave + core cor, Zval =  9.0
     Generated using ATOMPAW code
     Shape of augmentation charge: SINC**2
     Using radial grid of 2342 points,  5 beta functions with: 
                l(1) =   0
                l(2) =   0
                l(3) =   1
                l(4) =   1
                l(5) =   2
     Q(r) pseudized with 0 coefficients 


     PseudoPot. # 2 for Zr read from file:
     ./Zr.upf
     MD5 check sum: 10be9e9715c592225794718718b87d8f
     Pseudo is Projector augmented-wave + core cor, Zval = 12.0
     Generated using ATOMPAW code
     Shape of augmentation charge: BESSEL
     Using radial grid of 2342 points,  6 beta functions with: 
                l(1) =   0
                l(2) =   0
                l(3) =   1
                l(4) =   1
                l(5) =   2
                l(6) =   2
     Q(r) pseudized with 0 coefficients 


     PseudoPot. # 3 for Sn read from file:
     ./Sn.upf
     MD5 check sum: f8d5c2bd65c7f969f3af92fc3a9f2821
     Pseudo is Projector augmented-wave + core cor, Zval = 14.0
     Generated using ATOMPAW code
     Shape of augmentation charge: BESSEL
     Using radial grid of 2342 points,  6 beta functions with: 
                l(1) =   0
                l(2) =   0
                l(3) =   1
                l(4) =   1
                l(5) =   2
                l(6) =   2
     Q(r) pseudized with 0 coefficients 


     PseudoPot. # 4 for O  read from file:
     ./O.upf
     MD5 check sum: 45fbb1c0d1f8837f1e386a2947d3aa26
     Pseudo is Projector augmented-wave + core cor, Zval =  6.0
     Generated using ATOMPAW code
     Shape of augmentation charge: SINC**2
     Using radial grid of 2342 points,  4 beta functions with: 
                l(1) =   0
                l(2) =   0
                l(3) =   1
                l(4) =   1
     Q(r) pseudized with 0 coefficients 


     atomic species   valence    mass     pseudopotential
        K              9.00    39.09800     K ( 1.00)
        Zr            12.00    91.22400     Zr( 1.00)
        Sn            14.00   118.71000     Sn( 1.00)
        O              6.00    15.99900     O ( 1.00)

      6 Sym. Ops. (no inversion) found



   Cartesian axes

     site n.     atom                  positions (alat units)
         1           K   tau(   1) = (   0.0000000   0.0000000   0.0000000  )
         2           K   tau(   2) = (   0.5000000   0.5000000   0.0000000  )
         3           K   tau(   3) = (   0.5000000   0.0000000   0.5000000  )
         4           K   tau(   4) = (   0.0000000   0.5000000   0.5000000  )
         5           Sn  tau(   5) = (   0.2500000   0.2500000   0.2500000  )
         6           Zr  tau(   6) = (   0.7500000   0.7500000   0.7500000  )
         7           O   tau(   7) = (   0.2500000   0.0000000   0.0000000  )
         8           O   tau(   8) = (   0.7500000   0.0000000   0.0000000  )
         9           O   tau(   9) = (   0.0000000   0.2500000   0.0000000  )
        10           O   tau(  10) = (   0.0000000   0.7500000   0.0000000  )
        11           O   tau(  11) = (   0.0000000   0.0000000   0.2500000  )
        12           O   tau(  12) = (   0.0000000   0.0000000   0.7500000  )

     number of k points=     6
                       cart. coord. in units 2pi/alat
        k(    1) = (   0.0000000   0.0000000   0.0000000), wk =   0.0740741
        k(    2) = (   0.0000000   0.0000000   0.3333333), wk =   0.4444444
        k(    3) = (   0.0000000   0.3333333   0.3333333), wk =   0.4444444
        k(    4) = (   0.3333333   0.3333333   0.3333333), wk =   0.1481481
        k(    5) = (  -0.3333333   0.0000000   0.3333333), wk =   0.4444444
        k(    6) = (   0.3333333  -0.3333333   0.3333333), wk =   0.4444444

     Dense  grid:   253119 G-vectors     FFT dimensions: (  80,  80,  80)

     Smooth grid:    89199 G-vectors     FFT dimensions: (  60,  60,  60)

     Estimated max dynamical RAM per process >      71.18 MB

     Estimated total dynamical RAM >       1.11 GB

     Check: negative core charge=   -0.000001

     Initial potential from superposition of free atoms

     starting charge      97.9154, renormalised to      98.0000
     Starting wfcs are  136 randomized atomic wfcs
     Checking if some PAW data can be deallocated... 

     total cpu time spent up to now is        4.7 secs

     per-process dynamical memory:    64.6 Mb

     Self-consistent Calculation

     iteration #  1     ecut=    60.00 Ry     beta= 0.70
     Davidson diagonalization with overlap
     ethr =  1.00E-02,  avg # of iterations =  2.0

     total cpu time spent up to now is        6.4 secs

     total energy              =   -1445.88812373 Ry
     estimated scf accuracy    <       3.83479363 Ry

     iteration #  2     ecut=    60.00 Ry     beta= 0.70
     Davidson diagonalization with overlap
     ethr =  3.91E-03,  avg # of iterations =  6.2

     total cpu time spent up to now is        8.7 secs

     total energy              =   -1441.58761878 Ry
     estimated scf accuracy    <      40.68986406 Ry

     iteration #  3     ecut=    60.00 Ry     beta= 0.70
     Davidson diagonalization with overlap
     ethr =  3.91E-03,  avg # of iterations =  7.7

     total cpu time spent up to now is       11.2 secs

     total energy              =   -1447.57712989 Ry
     estimated scf accuracy    <       3.38175290 Ry

     iteration #  4     ecut=    60.00 Ry     beta= 0.70
     Davidson diagonalization with overlap
     ethr =  3.45E-03,  avg # of iterations =  5.7

     total cpu time spent up to now is       12.9 secs

     total energy              =   -1448.07789594 Ry
     estimated scf accuracy    <       0.87999176 Ry

     iteration #  5     ecut=    60.00 Ry     beta= 0.70
     Davidson diagonalization with overlap
     ethr =  8.98E-04,  avg # of iterations =  3.5

     total cpu time spent up to now is       14.6 secs

     total energy              =   -1448.06053993 Ry
     estimated scf accuracy    <       0.42020042 Ry

     iteration #  6     ecut=    60.00 Ry     beta= 0.70
     Davidson diagonalization with overlap
     ethr =  4.29E-04,  avg # of iterations =  4.0

     total cpu time spent up to now is       16.3 secs

     total energy              =   -1448.06172971 Ry
     estimated scf accuracy    <       0.11138065 Ry

     iteration #  7     ecut=    60.00 Ry     beta= 0.70
     Davidson diagonalization with overlap
     ethr =  1.14E-04,  avg # of iterations =  5.7

     total cpu time spent up to now is       18.1 secs

     total energy              =   -1448.07779816 Ry
     estimated scf accuracy    <       0.01236113 Ry

     iteration #  8     ecut=    60.00 Ry     beta= 0.70
     Davidson diagonalization with overlap
     ethr =  1.26E-05,  avg # of iterations =  4.8

     total cpu time spent up to now is       20.0 secs

     total energy              =   -1448.07983217 Ry
     estimated scf accuracy    <       0.00336238 Ry

     iteration #  9     ecut=    60.00 Ry     beta= 0.70
     Davidson diagonalization with overlap
     ethr =  3.43E-06,  avg # of iterations =  5.5

     total cpu time spent up to now is       22.0 secs

     total energy              =   -1448.08021383 Ry
     estimated scf accuracy    <       0.00173729 Ry

     iteration # 10     ecut=    60.00 Ry     beta= 0.70
     Davidson diagonalization with overlap
     ethr =  1.77E-06,  avg # of iterations =  4.8

     total cpu time spent up to now is       23.8 secs

     total energy              =   -1448.08042690 Ry
     estimated scf accuracy    <       0.00004871 Ry

     iteration # 11     ecut=    60.00 Ry     beta= 0.70
     Davidson diagonalization with overlap
     ethr =  4.97E-08,  avg # of iterations =  6.8

     total cpu time spent up to now is       26.0 secs

     total energy              =   -1448.08044626 Ry
     estimated scf accuracy    <       0.00001465 Ry

     iteration # 12     ecut=    60.00 Ry     beta= 0.70
     Davidson diagonalization with overlap
     ethr =  1.50E-08,  avg # of iterations =  6.5

     total cpu time spent up to now is       27.9 secs

     total energy              =   -1448.08044751 Ry
     estimated scf accuracy    <       0.00000099 Ry

     iteration # 13     ecut=    60.00 Ry     beta= 0.70
     Davidson diagonalization with overlap
     ethr =  1.01E-09,  avg # of iterations =  5.2

     total cpu time spent up to now is       30.0 secs

     total energy              =   -1448.08044786 Ry
     estimated scf accuracy    <       0.00000023 Ry

     iteration # 14     ecut=    60.00 Ry     beta= 0.70
     Davidson diagonalization with overlap
     ethr =  2.34E-10,  avg # of iterations =  4.0

     total cpu time spent up to now is       31.7 secs

     total energy              =   -1448.08044788 Ry
     estimated scf accuracy    <       0.00000005 Ry

     iteration # 15     ecut=    60.00 Ry     beta= 0.70
     Davidson diagonalization with overlap
     ethr =  4.72E-11,  avg # of iterations =  7.0

     total cpu time spent up to now is       33.7 secs

     total energy              =   -1448.08044789 Ry
     estimated scf accuracy    <       0.00000001 Ry

     iteration # 16     ecut=    60.00 Ry     beta= 0.70
     Davidson diagonalization with overlap
     ethr =  1.33E-11,  avg # of iterations =  5.3

     total cpu time spent up to now is       35.4 secs

     total energy              =   -1448.08044789 Ry
     estimated scf accuracy    <          1.6E-09 Ry

     iteration # 17     ecut=    60.00 Ry     beta= 0.70
     Davidson diagonalization with overlap
     ethr =  1.59E-12,  avg # of iterations =  6.5

     total cpu time spent up to now is       37.5 secs

     total energy              =   -1448.08044789 Ry
     estimated scf accuracy    <          3.5E-10 Ry

     iteration # 18     ecut=    60.00 Ry     beta= 0.70
     Davidson diagonalization with overlap
     ethr =  3.61E-13,  avg # of iterations =  5.7

     total cpu time spent up to now is       39.3 secs

     End of self-consistent calculation

          k = 0.0000 0.0000 0.0000 ( 11075 PWs)   bands (ev):

   -41.1604 -29.8148 -23.7589 -23.7589 -23.7393 -20.2096 -19.4719 -19.4719
   -17.8894 -17.8894 -17.8396 -14.5153 -14.5153 -14.3776 -14.3776 -14.2374
   -11.7181 -11.7181  -8.7530  -7.9899  -7.6436  -7.6436  -7.1582  -7.1582
    -7.0433  -7.0407  -7.0331  -7.0331  -4.4689  -4.4689  -4.3708  -1.4388
    -0.1516  -0.1516   1.1008   1.1008   1.7948   3.0856   3.0856   3.5900
     3.5900   3.9861   4.3504   5.5739   5.5739   6.3944   6.6320   8.0915
     8.5548

          k = 0.0000 0.0000 0.3333 ( 11188 PWs)   bands (ev):

   -41.1604 -29.8147 -23.7664 -23.7588 -23.7315 -20.2120 -19.4735 -19.4728
   -17.8927 -17.8880 -17.8395 -14.5204 -14.5149 -14.3784 -14.3773 -14.2355
   -11.7091 -11.6761  -8.7867  -7.8658  -7.6922  -7.6624  -7.1448  -7.1197
    -7.0596  -7.0490  -7.0346  -7.0304  -4.7455  -4.4542  -4.4132  -1.4413
    -0.1641  -0.1587   1.1140   1.4931   1.7419   3.1079   3.1622   3.5155
     3.6218   4.2768   4.3746   5.4794   5.4881   6.3389   6.8451   7.9792
     8.3034

          k = 0.0000 0.3333 0.3333 ( 11162 PWs)   bands (ev):

   -41.1604 -29.8146 -23.7645 -23.7631 -23.7288 -20.2137 -19.4746 -19.4741
   -17.8935 -17.8894 -17.8403 -14.5193 -14.5160 -14.3785 -14.3777 -14.2351
   -11.6905 -11.6496  -8.7760  -7.8154  -7.7105  -7.6651  -7.1412  -7.0903
    -7.0820  -7.0544  -7.0462  -7.0277  -4.7309  -4.7178  -4.4350  -1.4603
    -0.1966  -0.1698   1.3068   1.7171   1.7773   3.1391   3.2173   3.5367
     3.6464   4.3337   4.4164   5.3136   5.4329   6.2741   7.1631   8.2492
     8.2737

          k = 0.3333 0.3333 0.3333 ( 11188 PWs)   bands (ev):

   -41.1604 -29.8145 -23.7629 -23.7629 -23.7305 -20.2146 -19.4755 -19.4755
   -17.8930 -17.8930 -17.8418 -14.5159 -14.5159 -14.3785 -14.3785 -14.2363
   -11.6494 -11.6494  -8.7412  -7.8286  -7.6640  -7.6640  -7.1489  -7.0947
    -7.0947  -7.0693  -7.0693  -7.0070  -4.7181  -4.7181  -4.6923  -1.5101
    -0.2162  -0.2162   1.7231   1.7231   1.8634   3.2355   3.2355   3.6442
     3.6442   4.3044   4.4686   5.2844   5.2844   6.1980   7.3880   8.2280
     8.2280

          k =-0.3333 0.0000 0.3333 ( 11162 PWs)   bands (ev):

   -41.1604 -29.8146 -23.7681 -23.7612 -23.7272 -20.2129 -19.4747 -19.4741
   -17.8934 -17.8898 -17.8410 -14.5168 -14.5154 -14.3785 -14.3780 -14.2363
   -11.6977 -11.6495  -8.7379  -7.8498  -7.7241  -7.6595  -7.1378  -7.1197
    -7.0633  -7.0533  -7.0386  -7.0213  -4.7425  -4.7059  -4.4338  -1.4696
    -0.1952  -0.1683   1.3114   1.7141   1.8578   3.1021   3.2017   3.4924
     3.6828   4.2690   4.4086   5.3371   5.4565   6.2728   7.0912   8.1442
     8.2103

          k = 0.3333-0.3333 0.3333 ( 11188 PWs)   bands (ev):

   -41.1604 -29.8145 -23.7669 -23.7629 -23.7267 -20.2129 -19.4757 -19.4755
   -17.8937 -17.8930 -17.8434 -14.5145 -14.5106 -14.3789 -14.3787 -14.2386
   -11.6603 -11.6537  -8.6462  -7.9304  -7.6861  -7.6485  -7.1804  -7.1063
    -7.0780  -7.0533  -7.0385  -7.0083  -4.7351  -4.7250  -4.6628  -1.5188
    -0.2147  -0.2128   1.7173   1.7334   1.9603   3.1750   3.1828   3.6286
     3.6892   4.2299   4.4546   5.3116   5.3424   6.1931   7.4175   8.2143
     8.2830

     highest occupied level (ev):     8.5548

!    total energy              =   -1448.08044789 Ry
     total all-electron energy =     -1448.080448 Ry
     estimated scf accuracy    <          1.2E-11 Ry

     The total energy is the sum of the following terms:
     one-electron contribution =    -458.17104693 Ry
     hartree contribution      =     298.06098722 Ry
     xc contribution           =    -121.67851576 Ry
     ewald contribution        =    -342.76060903 Ry
     one-center paw contrib.   =    -823.53126338 Ry

     convergence has been achieved in  18 iterations

     Forces acting on atoms (cartesian axes, Ry/au):

     atom    1 type  1   force =     0.02823788    0.02823788    0.02823788
     atom    2 type  1   force =     0.03440463    0.03440463   -0.02809822
     atom    3 type  1   force =     0.03440463   -0.02809822    0.03440463
     atom    4 type  1   force =    -0.02809822    0.03440463    0.03440463
     atom    5 type  3   force =     0.01560375    0.01560375    0.01560375
     atom    6 type  2   force =     0.05043004    0.05043004    0.05043004
     atom    7 type  4   force =     0.62892270   -0.02570088   -0.02570088
     atom    8 type  4   force =    -0.67734593   -0.01757886   -0.01757886
     atom    9 type  4   force =    -0.02570088    0.62892270   -0.02570088
     atom   10 type  4   force =    -0.01757886   -0.67734593   -0.01757886
     atom   11 type  4   force =    -0.02570088   -0.02570088    0.62892270
     atom   12 type  4   force =    -0.01757886   -0.01757886   -0.67734593

     Total force =     1.609057     Total SCF correction =     0.000010


     Computing stress (Cartesian axis) and pressure

          total   stress  (Ry/bohr**3)                   (kbar)     P=      492.41
   0.00334732  -0.00008707  -0.00008707          492.41      -12.81      -12.81
  -0.00008707   0.00334732  -0.00008707          -12.81      492.41      -12.81
  -0.00008707  -0.00008707   0.00334732          -12.81      -12.81      492.41


     Writing all to output data dir ./K4SnZrO6.save/

     init_run     :      3.16s CPU      3.40s WALL (       1 calls)
     electrons    :     33.16s CPU     34.72s WALL (       1 calls)
     forces       :      0.79s CPU      0.82s WALL (       1 calls)
     stress       :      2.30s CPU      2.37s WALL (       1 calls)

     Called by init_run:
     wfcinit      :      0.65s CPU      0.68s WALL (       1 calls)
     potinit      :      0.98s CPU      1.00s WALL (       1 calls)
     hinit0       :      1.11s CPU      1.20s WALL (       1 calls)

     Called by electrons:
     c_bands      :     17.63s CPU     18.01s WALL (      18 calls)
     sum_band     :      4.15s CPU      4.65s WALL (      18 calls)
     v_of_rho     :      0.52s CPU      0.54s WALL (      19 calls)
     newd         :      1.83s CPU      2.30s WALL (      19 calls)
     PAW_pot      :      9.50s CPU      9.60s WALL (      19 calls)
     mix_rho      :      0.08s CPU      0.09s WALL (      18 calls)

     Called by c_bands:
     init_us_2    :      0.18s CPU      0.19s WALL (     234 calls)
     init_us_2:cp :      0.18s CPU      0.19s WALL (     234 calls)
     cegterg      :     17.03s CPU     17.36s WALL (     108 calls)

     Called by *egterg:
     cdiaghg      :      6.35s CPU      6.44s WALL (     689 calls)
     h_psi        :      7.86s CPU      8.07s WALL (     695 calls)
     s_psi        :      0.79s CPU      0.80s WALL (     695 calls)
     g_psi        :      0.12s CPU      0.12s WALL (     581 calls)

     Called by h_psi:
     h_psi:calbec :      0.92s CPU      0.97s WALL (     695 calls)
     vloc_psi     :      6.07s CPU      6.23s WALL (     695 calls)
     add_vuspsi   :      0.82s CPU      0.83s WALL (     695 calls)

     General routines
     calbec       :      1.28s CPU      1.34s WALL (     833 calls)
     fft          :      0.56s CPU      0.66s WALL (     270 calls)
     ffts         :      0.25s CPU      0.25s WALL (      37 calls)
     fftw         :      6.34s CPU      6.50s WALL (   34828 calls)
     interpolate  :      0.26s CPU      0.27s WALL (      19 calls)

     Parallel routines

     PWSCF        :     40.53s CPU     43.48s WALL


   This run was terminated on:   3: 7: 6  30Nov2025            

=------------------------------------------------------------------------------=
   JOB DONE.
=------------------------------------------------------------------------------=
