
     Program PWSCF v.7.1 starts on  1Dec2025 at  1:19:17 

     This program is part of the open-source Quantum ESPRESSO suite
     for quantum simulation of materials; please cite
         "P. Giannozzi et al., J. Phys.:Condens. Matter 21 395502 (2009);
         "P. Giannozzi et al., J. Phys.:Condens. Matter 29 465901 (2017);
         "P. Giannozzi et al., J. Chem. Phys. 152 154105 (2020);
          URL http://www.quantum-espresso.org", 
     in publications or presentations arising from this work. More details at
     http://www.quantum-espresso.org/quote

     Parallel version (MPI & OpenMP), running on      16 processor cores
     Number of MPI processes:                16
     Threads/MPI process:                     1

     MPI processes distributed on     1 nodes
     96665 MiB available memory on the printing compute node when the environment starts

     Waiting for input...
     Reading input from standard input

     Current dimensions of program PWSCF are:
     Max number of different atomic species (ntypx) = 10
     Max number of k-points (npk) =  40000
     Max angular momentum in pseudopotentials (lmaxx) =  4
     Message from routine read_pp_mesh:
     mismatch in mesh size, discarding the one in header
     Message from routine read_pp_mesh:
     mismatch in mesh size, discarding the one in header
     Message from routine read_pp_mesh:
     mismatch in mesh size, discarding the one in header
     Message from routine read_pp_mesh:
     mismatch in mesh size, discarding the one in header
     Message from routine read_pp_mesh:
     mismatch in mesh size, discarding the one in header
     Message from routine setup:
     using ibrav=0 with symmetry is DISCOURAGED, use correct ibrav instead

     R & G space division:  proc/nbgrp/npool/nimage =      16
     Subspace diagonalization in iterative solution of the eigenvalue problem:
     a serial algorithm will be used


     Parallelization info
     --------------------
     sticks:   dense  smooth     PW     G-vecs:    dense   smooth      PW
     Min         302     151     41                15818     5573     813
     Max         304     152     43                15821     5577     816
     Sum        4849    2417    673               253119    89199   13037

     Using Slab Decomposition



     bravais-lattice index     =            0
     lattice parameter (alat)  =      11.2511  a.u.
     unit-cell volume          =    1424.2554 (a.u.)^3
     number of atoms/cell      =           12
     number of atomic types    =            5
     number of electrons       =        98.00
     number of Kohn-Sham states=           49
     kinetic-energy cutoff     =      60.0000  Ry
     charge density cutoff     =     480.0000  Ry
     scf convergence threshold =      1.0E-10
     mixing beta               =       0.7000
     number of iterations used =            8  plain     mixing
     energy convergence thresh.=      1.0E-04
     force convergence thresh. =      1.0E-05
     press convergence thresh. =      5.0E-01
     Exchange-correlation= SLA PW PBX PBC
                           (   1   4   3   4   0   0   0)
     nstep                     =          250


     celldm(1)=  11.251125  celldm(2)=   0.000000  celldm(3)=   0.000000
     celldm(4)=   0.000000  celldm(5)=   0.000000  celldm(6)=   0.000000

     crystal axes: (cart. coord. in units of alat)
               a(1) = (   1.000000   0.000000   0.000000 )  
               a(2) = (   0.000000   1.000000   0.000000 )  
               a(3) = (   0.000000   0.000000   1.000000 )  

     reciprocal axes: (cart. coord. in units 2 pi/alat)
               b(1) = (  1.000000  0.000000  0.000000 )  
               b(2) = (  0.000000  1.000000  0.000000 )  
               b(3) = (  0.000000  0.000000  1.000000 )  


     PseudoPot. # 1 for Na read from file:
     ./Na.upf
     MD5 check sum: b8e483bdca8edababda73ba53cc0c4c9
     Pseudo is Projector augmented-wave + core cor, Zval =  9.0
     Generated using ATOMPAW code
     Shape of augmentation charge: SINC**2
     Using radial grid of 2342 points,  4 beta functions with: 
                l(1) =   0
                l(2) =   0
                l(3) =   1
                l(4) =   1
     Q(r) pseudized with 0 coefficients 


     PseudoPot. # 2 for K  read from file:
     ./K.upf
     MD5 check sum: 9356cfae17991a8ac93a0af773ad5d28
     Pseudo is Projector augmented-wave + core cor, Zval =  9.0
     Generated using ATOMPAW code
     Shape of augmentation charge: SINC**2
     Using radial grid of 2342 points,  5 beta functions with: 
                l(1) =   0
                l(2) =   0
                l(3) =   1
                l(4) =   1
                l(5) =   2
     Q(r) pseudized with 0 coefficients 


     PseudoPot. # 3 for Zr read from file:
     ./Zr.upf
     MD5 check sum: 10be9e9715c592225794718718b87d8f
     Pseudo is Projector augmented-wave + core cor, Zval = 12.0
     Generated using ATOMPAW code
     Shape of augmentation charge: BESSEL
     Using radial grid of 2342 points,  6 beta functions with: 
                l(1) =   0
                l(2) =   0
                l(3) =   1
                l(4) =   1
                l(5) =   2
                l(6) =   2
     Q(r) pseudized with 0 coefficients 


     PseudoPot. # 4 for Sn read from file:
     ./Sn.upf
     MD5 check sum: f8d5c2bd65c7f969f3af92fc3a9f2821
     Pseudo is Projector augmented-wave + core cor, Zval = 14.0
     Generated using ATOMPAW code
     Shape of augmentation charge: BESSEL
     Using radial grid of 2342 points,  6 beta functions with: 
                l(1) =   0
                l(2) =   0
                l(3) =   1
                l(4) =   1
                l(5) =   2
                l(6) =   2
     Q(r) pseudized with 0 coefficients 


     PseudoPot. # 5 for O  read from file:
     ./O.upf
     MD5 check sum: 45fbb1c0d1f8837f1e386a2947d3aa26
     Pseudo is Projector augmented-wave + core cor, Zval =  6.0
     Generated using ATOMPAW code
     Shape of augmentation charge: SINC**2
     Using radial grid of 2342 points,  4 beta functions with: 
                l(1) =   0
                l(2) =   0
                l(3) =   1
                l(4) =   1
     Q(r) pseudized with 0 coefficients 


     atomic species   valence    mass     pseudopotential
        Na             9.00    22.96000     Na( 1.00)
        K              9.00    39.09800     K ( 1.00)
        Zr            12.00    91.22400     Zr( 1.00)
        Sn            14.00   118.71000     Sn( 1.00)
        O              6.00    15.99900     O ( 1.00)

      2 Sym. Ops. (no inversion) found



   Cartesian axes

     site n.     atom                  positions (alat units)
         1           Na  tau(   1) = (   0.0000000   0.0000000   0.0000000  )
         2           K   tau(   2) = (   0.5000000   0.5000000   0.0000000  )
         3           Na  tau(   3) = (   0.5000000   0.0000000   0.5000000  )
         4           K   tau(   4) = (   0.0000000   0.5000000   0.5000000  )
         5           Zr  tau(   5) = (   0.2500000   0.2500000   0.2500000  )
         6           Sn  tau(   6) = (   0.7500000   0.7500000   0.7500000  )
         7           O   tau(   7) = (   0.2500000   0.0000000   0.0000000  )
         8           O   tau(   8) = (   0.7500000   0.0000000   0.0000000  )
         9           O   tau(   9) = (   0.0000000   0.2500000   0.0000000  )
        10           O   tau(  10) = (   0.0000000   0.7500000   0.0000000  )
        11           O   tau(  11) = (   0.0000000   0.0000000   0.2500000  )
        12           O   tau(  12) = (   0.0000000   0.0000000   0.7500000  )

     number of k points=    39
                       cart. coord. in units 2pi/alat
        k(    1) = (   0.0000000   0.0000000   0.0000000), wk =   0.0160000
        k(    2) = (   0.0000000   0.0000000   0.2000000), wk =   0.0640000
        k(    3) = (   0.0000000   0.0000000   0.4000000), wk =   0.0640000
        k(    4) = (   0.0000000   0.2000000   0.2000000), wk =   0.0640000
        k(    5) = (   0.0000000   0.2000000   0.4000000), wk =   0.0640000
        k(    6) = (   0.0000000   0.4000000   0.4000000), wk =   0.0640000
        k(    7) = (   0.2000000   0.2000000   0.2000000), wk =   0.0320000
        k(    8) = (   0.2000000   0.2000000   0.4000000), wk =   0.0640000
        k(    9) = (   0.2000000   0.4000000   0.4000000), wk =   0.0640000
        k(   10) = (   0.4000000   0.4000000   0.4000000), wk =   0.0320000
        k(   11) = (   0.0000000   0.2000000   0.0000000), wk =   0.0320000
        k(   12) = (   0.0000000   0.4000000   0.0000000), wk =   0.0320000
        k(   13) = (   0.0000000   0.2000000  -0.2000000), wk =   0.0640000
        k(   14) = (   0.2000000   0.0000000  -0.2000000), wk =   0.0320000
        k(   15) = (  -0.2000000   0.0000000  -0.2000000), wk =   0.0320000
        k(   16) = (   0.0000000   0.2000000  -0.4000000), wk =   0.0640000
        k(   17) = (   0.2000000   0.0000000  -0.4000000), wk =   0.0640000
        k(   18) = (  -0.2000000   0.0000000  -0.4000000), wk =   0.0640000
        k(   19) = (   0.0000000   0.4000000   0.2000000), wk =   0.0640000
        k(   20) = (   0.0000000   0.4000000  -0.2000000), wk =   0.0640000
        k(   21) = (   0.0000000   0.4000000  -0.4000000), wk =   0.0640000
        k(   22) = (   0.4000000   0.0000000  -0.4000000), wk =   0.0320000
        k(   23) = (  -0.4000000   0.0000000  -0.4000000), wk =   0.0320000
        k(   24) = (  -0.2000000   0.2000000  -0.2000000), wk =   0.0320000
        k(   25) = (   0.2000000  -0.2000000  -0.2000000), wk =   0.0640000
        k(   26) = (  -0.2000000   0.2000000  -0.4000000), wk =   0.0640000
        k(   27) = (   0.2000000  -0.2000000  -0.4000000), wk =   0.0640000
        k(   28) = (   0.2000000   0.2000000  -0.4000000), wk =   0.0640000
        k(   29) = (  -0.2000000   0.4000000   0.2000000), wk =   0.0640000
        k(   30) = (  -0.2000000  -0.4000000  -0.2000000), wk =   0.0320000
        k(   31) = (   0.2000000  -0.4000000   0.2000000), wk =   0.0320000
        k(   32) = (  -0.2000000   0.4000000  -0.4000000), wk =   0.0640000
        k(   33) = (   0.2000000  -0.4000000  -0.4000000), wk =   0.0640000
        k(   34) = (   0.4000000   0.2000000  -0.4000000), wk =   0.0640000
        k(   35) = (  -0.4000000  -0.2000000  -0.4000000), wk =   0.0320000
        k(   36) = (   0.4000000  -0.2000000   0.4000000), wk =   0.0320000
        k(   37) = (  -0.4000000   0.4000000   0.2000000), wk =   0.0640000
        k(   38) = (  -0.4000000   0.4000000  -0.4000000), wk =   0.0320000
        k(   39) = (   0.4000000  -0.4000000  -0.4000000), wk =   0.0640000

     Dense  grid:   253119 G-vectors     FFT dimensions: (  80,  80,  80)

     Smooth grid:    89199 G-vectors     FFT dimensions: (  60,  60,  60)

     Estimated max dynamical RAM per process >      99.33 MB

     Estimated total dynamical RAM >       1.55 GB

     Check: negative core charge=   -0.000001

     Initial potential from superposition of free atoms

     starting charge      97.9418, renormalised to      98.0000
     Starting wfcs are  126 randomized atomic wfcs
     Checking if some PAW data can be deallocated... 

     total cpu time spent up to now is       19.0 secs

     per-process dynamical memory:    87.3 Mb

     Self-consistent Calculation

     iteration #  1     ecut=    60.00 Ry     beta= 0.70
     Davidson diagonalization with overlap
     ethr =  1.00E-02,  avg # of iterations =  2.0

     total cpu time spent up to now is       24.0 secs

     total energy              =   -1432.44895655 Ry
     estimated scf accuracy    <      12.34502721 Ry

     iteration #  2     ecut=    60.00 Ry     beta= 0.70
     Davidson diagonalization with overlap
     ethr =  1.00E-02,  avg # of iterations =  8.3

     total cpu time spent up to now is       35.6 secs

     total energy              =   -1422.81411396 Ry
     estimated scf accuracy    <     209.80421348 Ry

     iteration #  3     ecut=    60.00 Ry     beta= 0.70
     Davidson diagonalization with overlap
     ethr =  1.00E-02,  avg # of iterations =  7.3

     total cpu time spent up to now is       47.7 secs

     total energy              =   -1440.51679491 Ry
     estimated scf accuracy    <       2.89801236 Ry

     iteration #  4     ecut=    60.00 Ry     beta= 0.70
     Davidson diagonalization with overlap
     ethr =  2.96E-03,  avg # of iterations =  5.3

     total cpu time spent up to now is       55.1 secs

     total energy              =   -1440.80160731 Ry
     estimated scf accuracy    <       1.25641520 Ry

     iteration #  5     ecut=    60.00 Ry     beta= 0.70
     Davidson diagonalization with overlap
     ethr =  1.28E-03,  avg # of iterations =  4.8

     total cpu time spent up to now is       61.9 secs

     total energy              =   -1440.87530025 Ry
     estimated scf accuracy    <       0.55700689 Ry

     iteration #  6     ecut=    60.00 Ry     beta= 0.70
     Davidson diagonalization with overlap
     ethr =  5.68E-04,  avg # of iterations =  1.6

     total cpu time spent up to now is       66.8 secs

     total energy              =   -1440.80739614 Ry
     estimated scf accuracy    <       0.38801802 Ry

     iteration #  7     ecut=    60.00 Ry     beta= 0.70
     Davidson diagonalization with overlap
     ethr =  3.96E-04,  avg # of iterations =  7.2

     total cpu time spent up to now is       74.8 secs

     total energy              =   -1440.84654484 Ry
     estimated scf accuracy    <       0.23896402 Ry

     iteration #  8     ecut=    60.00 Ry     beta= 0.70
     Davidson diagonalization with overlap
     ethr =  2.44E-04,  avg # of iterations =  1.7

     total cpu time spent up to now is       79.7 secs

     total energy              =   -1440.82740359 Ry
     estimated scf accuracy    <       0.17083057 Ry

     iteration #  9     ecut=    60.00 Ry     beta= 0.70
     Davidson diagonalization with overlap
     ethr =  1.74E-04,  avg # of iterations =  7.1

     total cpu time spent up to now is       87.3 secs

     total energy              =   -1440.83691861 Ry
     estimated scf accuracy    <       0.04041976 Ry

     iteration # 10     ecut=    60.00 Ry     beta= 0.70
     Davidson diagonalization with overlap
     ethr =  4.12E-05,  avg # of iterations =  7.0

     total cpu time spent up to now is       96.4 secs

     total energy              =   -1440.83590443 Ry
     estimated scf accuracy    <       0.09693756 Ry

     iteration # 11     ecut=    60.00 Ry     beta= 0.70
     Davidson diagonalization with overlap
     ethr =  4.12E-05,  avg # of iterations =  7.3

     total cpu time spent up to now is      104.5 secs

     total energy              =   -1440.84125400 Ry
     estimated scf accuracy    <       0.00994743 Ry

     iteration # 12     ecut=    60.00 Ry     beta= 0.70
     Davidson diagonalization with overlap
     ethr =  1.02E-05,  avg # of iterations =  6.6

     total cpu time spent up to now is      113.4 secs

     total energy              =   -1440.84246070 Ry
     estimated scf accuracy    <       0.02137235 Ry

     iteration # 13     ecut=    60.00 Ry     beta= 0.70
     Davidson diagonalization with overlap
     ethr =  1.02E-05,  avg # of iterations =  5.0

     total cpu time spent up to now is      119.8 secs

     total energy              =   -1440.84219740 Ry
     estimated scf accuracy    <       0.00587789 Ry

     iteration # 14     ecut=    60.00 Ry     beta= 0.70
     Davidson diagonalization with overlap
     ethr =  6.00E-06,  avg # of iterations =  6.4

     total cpu time spent up to now is      127.4 secs

     total energy              =   -1440.84282608 Ry
     estimated scf accuracy    <       0.00062246 Ry

     iteration # 15     ecut=    60.00 Ry     beta= 0.70
     Davidson diagonalization with overlap
     ethr =  6.35E-07,  avg # of iterations =  5.2

     total cpu time spent up to now is      134.1 secs

     total energy              =   -1440.84284898 Ry
     estimated scf accuracy    <       0.00020761 Ry

     iteration # 16     ecut=    60.00 Ry     beta= 0.70
     Davidson diagonalization with overlap
     ethr =  2.12E-07,  avg # of iterations =  7.6

     total cpu time spent up to now is      142.2 secs

     total energy              =   -1440.84287336 Ry
     estimated scf accuracy    <       0.00005855 Ry

     iteration # 17     ecut=    60.00 Ry     beta= 0.70
     Davidson diagonalization with overlap
     ethr =  5.97E-08,  avg # of iterations =  6.8

     total cpu time spent up to now is      149.9 secs

     total energy              =   -1440.84287499 Ry
     estimated scf accuracy    <       0.00003769 Ry

     iteration # 18     ecut=    60.00 Ry     beta= 0.70
     Davidson diagonalization with overlap
     ethr =  3.85E-08,  avg # of iterations =  6.3

     total cpu time spent up to now is      157.1 secs

     total energy              =   -1440.84287784 Ry
     estimated scf accuracy    <       0.00000342 Ry

     iteration # 19     ecut=    60.00 Ry     beta= 0.70
     Davidson diagonalization with overlap
     ethr =  3.49E-09,  avg # of iterations =  7.0

     total cpu time spent up to now is      165.8 secs

     total energy              =   -1440.84287839 Ry
     estimated scf accuracy    <       0.00000076 Ry

     iteration # 20     ecut=    60.00 Ry     beta= 0.70
     Davidson diagonalization with overlap
     ethr =  7.79E-10,  avg # of iterations =  8.1

     total cpu time spent up to now is      173.9 secs

     total energy              =   -1440.84287847 Ry
     estimated scf accuracy    <       0.00000009 Ry

     iteration # 21     ecut=    60.00 Ry     beta= 0.70
     Davidson diagonalization with overlap
     c_bands:  1 eigenvalues not converged
     ethr =  9.63E-11,  avg # of iterations =  7.5

     total cpu time spent up to now is      183.2 secs

     total energy              =   -1440.84293187 Ry
     estimated scf accuracy    <       0.00009405 Ry

     iteration # 22     ecut=    60.00 Ry     beta= 0.70
     Davidson diagonalization with overlap
     ethr =  9.63E-11,  avg # of iterations =  1.7

     total cpu time spent up to now is      188.1 secs

     total energy              =   -1440.84293133 Ry
     estimated scf accuracy    <       0.00009314 Ry

     iteration # 23     ecut=    60.00 Ry     beta= 0.70
     Davidson diagonalization with overlap
     ethr =  9.63E-11,  avg # of iterations =  7.6

     total cpu time spent up to now is      196.0 secs

     total energy              =   -1440.84293130 Ry
     estimated scf accuracy    <       0.00008574 Ry

     iteration # 24     ecut=    60.00 Ry     beta= 0.70
     Davidson diagonalization with overlap
     ethr =  9.63E-11,  avg # of iterations =  1.2

     total cpu time spent up to now is      200.6 secs

     total energy              =   -1440.84293088 Ry
     estimated scf accuracy    <       0.00008545 Ry

     iteration # 25     ecut=    60.00 Ry     beta= 0.70
     Davidson diagonalization with overlap
     ethr =  9.63E-11,  avg # of iterations =  7.1

     total cpu time spent up to now is      208.6 secs

     total energy              =   -1440.84293142 Ry
     estimated scf accuracy    <       0.00007942 Ry

     iteration # 26     ecut=    60.00 Ry     beta= 0.70
     Davidson diagonalization with overlap
     ethr =  9.63E-11,  avg # of iterations =  7.3

     total cpu time spent up to now is      216.5 secs

     total energy              =   -1440.84293165 Ry
     estimated scf accuracy    <       0.00008616 Ry

     iteration # 27     ecut=    60.00 Ry     beta= 0.70
     Davidson diagonalization with overlap
     ethr =  9.63E-11,  avg # of iterations =  6.4

     total cpu time spent up to now is      226.0 secs

     total energy              =   -1440.84293167 Ry
     estimated scf accuracy    <       0.00008865 Ry

     iteration # 28     ecut=    60.00 Ry     beta= 0.70
     Davidson diagonalization with overlap
     ethr =  9.63E-11,  avg # of iterations =  7.0

     total cpu time spent up to now is      236.0 secs

     total energy              =   -1440.84293268 Ry
     estimated scf accuracy    <       0.00009046 Ry

     iteration # 29     ecut=    60.00 Ry     beta= 0.70
     Davidson diagonalization with overlap
     ethr =  9.63E-11,  avg # of iterations =  8.6

     total cpu time spent up to now is      244.8 secs

     total energy              =   -1440.84291777 Ry
     estimated scf accuracy    <       0.00009980 Ry

     iteration # 30     ecut=    60.00 Ry     beta= 0.70
     Davidson diagonalization with overlap
     c_bands:  1 eigenvalues not converged
     c_bands:  1 eigenvalues not converged
     c_bands:  1 eigenvalues not converged
     c_bands:  1 eigenvalues not converged
     c_bands:  1 eigenvalues not converged
     c_bands:  1 eigenvalues not converged
     c_bands:  1 eigenvalues not converged
     c_bands:  1 eigenvalues not converged
     c_bands:  1 eigenvalues not converged
     c_bands:  1 eigenvalues not converged
     c_bands:  2 eigenvalues not converged
     c_bands:  2 eigenvalues not converged
     c_bands:  1 eigenvalues not converged
     c_bands:  1 eigenvalues not converged
     c_bands:  1 eigenvalues not converged
     c_bands:  1 eigenvalues not converged
     c_bands:  1 eigenvalues not converged
     c_bands:  1 eigenvalues not converged
     c_bands:  1 eigenvalues not converged
     c_bands:  1 eigenvalues not converged
     c_bands:  1 eigenvalues not converged
     c_bands:  1 eigenvalues not converged
     c_bands:  1 eigenvalues not converged
     c_bands:  1 eigenvalues not converged
     c_bands:  1 eigenvalues not converged
     c_bands:  1 eigenvalues not converged
     c_bands:  1 eigenvalues not converged
     c_bands:  1 eigenvalues not converged
     c_bands:  1 eigenvalues not converged
     ethr =  9.63E-11,  avg # of iterations = 19.2

     total cpu time spent up to now is      262.5 secs

     total energy              =   -1440.84292336 Ry
     estimated scf accuracy    <       0.00001070 Ry

     iteration # 31     ecut=    60.00 Ry     beta= 0.70
     Davidson diagonalization with overlap
     ethr =  9.63E-11,  avg # of iterations =  7.6

     total cpu time spent up to now is      274.4 secs

     total energy              =   -1440.84292359 Ry
     estimated scf accuracy    <       0.00000183 Ry

     iteration # 32     ecut=    60.00 Ry     beta= 0.70
     Davidson diagonalization with overlap
     ethr =  9.63E-11,  avg # of iterations =  7.6

     total cpu time spent up to now is      287.1 secs

     total energy              =   -1440.84292350 Ry
     estimated scf accuracy    <       0.00001029 Ry

     iteration # 33     ecut=    60.00 Ry     beta= 0.70
     Davidson diagonalization with overlap
     ethr =  9.63E-11,  avg # of iterations =  7.5

     total cpu time spent up to now is      299.3 secs

     total energy              =   -1440.84292414 Ry
     estimated scf accuracy    <       0.00000001 Ry

     iteration # 34     ecut=    60.00 Ry     beta= 0.70
     Davidson diagonalization with overlap
     ethr =  1.45E-11,  avg # of iterations =  6.1

     total cpu time spent up to now is      306.5 secs

     total energy              =   -1440.84292414 Ry
     estimated scf accuracy    <          1.0E-09 Ry

     iteration # 35     ecut=    60.00 Ry     beta= 0.70
     Davidson diagonalization with overlap
     c_bands:  1 eigenvalues not converged
     ethr =  1.03E-12,  avg # of iterations =  9.9

     total cpu time spent up to now is      317.4 secs

     total energy              =   -1440.84292414 Ry
     estimated scf accuracy    <          5.4E-10 Ry

     iteration # 36     ecut=    60.00 Ry     beta= 0.70
     Davidson diagonalization with overlap
     ethr =  5.52E-13,  avg # of iterations =  2.7

     total cpu time spent up to now is      322.6 secs

     total energy              =   -1440.84292414 Ry
     estimated scf accuracy    <          3.8E-10 Ry

     iteration # 37     ecut=    60.00 Ry     beta= 0.70
     Davidson diagonalization with overlap
     c_bands:  1 eigenvalues not converged
     ethr =  3.88E-13,  avg # of iterations =  7.8

     total cpu time spent up to now is      330.3 secs

     End of self-consistent calculation

          k = 0.0000 0.0000 0.0000 ( 11075 PWs)   bands (ev):

   -47.1269 -44.3667 -43.4830 -25.5684 -25.5498 -21.7562 -21.7313 -21.7261
   -19.1989 -18.9943 -18.9534 -18.4646 -18.2280 -18.2231 -15.5681 -15.5156
   -15.3762 -15.3604 -15.2820 -12.3552 -10.1913 -10.1543  -9.7395  -9.4097
    -8.9273  -8.9224  -8.8395  -8.7628  -8.7621  -8.6410  -8.6159  -0.8961
     1.3713   1.3858   1.5592   2.6471   2.7080   2.7345   3.1042   3.4206
     3.5063   4.2050   4.2762   4.7640   5.6333   5.7937   6.0646   6.6501
     6.6911

          k = 0.0000 0.0000 0.2000 ( 11172 PWs)   bands (ev):

   -47.1269 -44.3667 -43.4830 -25.5710 -25.5472 -21.7563 -21.7314 -21.7262
   -19.1988 -18.9944 -18.9535 -18.4651 -18.2288 -18.2234 -15.5685 -15.5153
   -15.3763 -15.3604 -15.2818 -12.3470 -10.1631 -10.1377  -9.7220  -9.4422
    -8.9432  -8.9090  -8.8480  -8.7853  -8.7596  -8.6676  -8.6161  -0.8979
     1.3549   1.3616   1.6177   2.6014   2.7370   2.7870   3.1557   3.4557
     3.5133   4.2238   4.4235   4.7808   5.5724   5.7110   6.0368   6.4649
     6.6501

          k = 0.0000 0.0000 0.4000 ( 11172 PWs)   bands (ev):

   -47.1269 -44.3667 -43.4830 -25.5743 -25.5438 -21.7565 -21.7316 -21.7263
   -19.1984 -18.9945 -18.9534 -18.4659 -18.2301 -18.2238 -15.5691 -15.5148
   -15.3763 -15.3604 -15.2815 -12.3341 -10.1264 -10.0940  -9.6700  -9.5196
    -8.9879  -8.8971  -8.8611  -8.8103  -8.7520  -8.7109  -8.6086  -0.9022
     1.3202   1.3491   1.6774   2.6465   2.7844   2.8948   3.0954   3.4894
     3.5420   4.2267   4.8105   4.8786   5.3860   5.6058   5.8250   6.2184
     6.6041

          k = 0.0000 0.2000 0.2000 ( 11178 PWs)   bands (ev):

   -47.1269 -44.3667 -43.4830 -25.5710 -25.5472 -21.7565 -21.7315 -21.7262
   -19.1988 -18.9945 -18.9535 -18.4652 -18.2286 -18.2244 -15.5691 -15.5150
   -15.3764 -15.3605 -15.2810 -12.3457 -10.1361 -10.0875  -9.6949  -9.5049
    -8.9691  -8.9080  -8.8667  -8.8218  -8.7654  -8.6349  -8.6244  -0.8819
     1.3338   1.3527   1.6063   2.6322   2.7391   2.8080   3.2609   3.4783
     3.5341   4.3446   4.4574   4.8005   5.4900   5.6056   6.0781   6.2758
     6.5059

          k = 0.0000 0.2000 0.4000 ( 11176 PWs)   bands (ev):

   -47.1269 -44.3667 -43.4830 -25.5742 -25.5439 -21.7565 -21.7317 -21.7264
   -19.1984 -18.9945 -18.9534 -18.4662 -18.2300 -18.2248 -15.5692 -15.5145
   -15.3764 -15.3604 -15.2814 -12.3251 -10.1074 -10.0623  -9.6658  -9.5475
    -9.0207  -8.9175  -8.8613  -8.8283  -8.7733  -8.6569  -8.6196  -0.9044
     1.2924   1.3323   1.7085   2.7188   2.7860   2.8793   3.1450   3.5088
     3.5742   4.3636   4.8199   4.8937   5.3311   5.5147   5.8212   6.1977
     6.5044

          k = 0.0000 0.4000 0.4000 ( 11190 PWs)   bands (ev):

   -47.1269 -44.3667 -43.4830 -25.5741 -25.5440 -21.7564 -21.7321 -21.7266
   -19.1984 -18.9945 -18.9534 -18.4667 -18.2300 -18.2265 -15.5688 -15.5140
   -15.3764 -15.3603 -15.2820 -12.3046 -10.1215  -9.9808  -9.6938  -9.5630
    -9.0468  -8.9713  -8.8727  -8.8102  -8.7584  -8.6725  -8.6097  -0.9278
     1.2459   1.3156   1.8334   2.7776   2.8066   2.9044   3.1198   3.5397
     3.6310   4.6939   4.7570   4.8993   5.3150   5.4418   5.6860   5.9636
     6.4591

          k = 0.2000 0.2000 0.2000 ( 11200 PWs)   bands (ev):

   -47.1269 -44.3667 -43.4830 -25.5702 -25.5480 -21.7567 -21.7316 -21.7263
   -19.1984 -18.9945 -18.9535 -18.4657 -18.2292 -18.2250 -15.5691 -15.5148
   -15.3765 -15.3606 -15.2808 -12.3388 -10.0865 -10.0716  -9.7046  -9.5170
    -9.0025  -8.8971  -8.8801  -8.8494  -8.7961  -8.6297  -8.6044  -0.8829
     1.3131   1.3280   1.6362   2.6555   2.7722   2.8197   3.3682   3.5227
     3.5322   4.4183   4.4318   4.8342   5.4549   5.5471   6.0487   6.3625
     6.5078

          k = 0.2000 0.2000 0.4000 ( 11163 PWs)   bands (ev):

   -47.1269 -44.3667 -43.4830 -25.5730 -25.5451 -21.7568 -21.7317 -21.7265
   -19.1984 -18.9944 -18.9534 -18.4664 -18.2305 -18.2251 -15.5689 -15.5146
   -15.3764 -15.3605 -15.2810 -12.3189 -10.0748 -10.0226  -9.6847  -9.5589
    -9.0528  -8.9124  -8.8687  -8.8379  -8.8160  -8.6539  -8.6017  -0.9162
     1.2643   1.3082   1.7929   2.7576   2.7894   2.8626   3.2696   3.5529
     3.5636   4.4398   4.7718   4.8787   5.3614   5.5028   5.7422   6.2186
     6.5325

          k = 0.2000 0.4000 0.4000 ( 11170 PWs)   bands (ev):

   -47.1269 -44.3667 -43.4830 -25.5729 -25.5452 -21.7565 -21.7320 -21.7267
   -19.1985 -18.9944 -18.9534 -18.4671 -18.2305 -18.2269 -15.5683 -15.5143
   -15.3763 -15.3602 -15.2822 -12.2912 -10.0846  -9.9768  -9.7372  -9.5320
    -9.0680  -8.9905  -8.8736  -8.8267  -8.8049  -8.6310  -8.6012  -0.9624
     1.2266   1.2699   1.9407   2.7914   2.8364   2.8667   3.3019   3.5712
     3.6231   4.7012   4.7482   4.9311   5.3753   5.4859   5.6155   5.9569
     6.4328

          k = 0.4000 0.4000 0.4000 ( 11215 PWs)   bands (ev):

   -47.1269 -44.3667 -43.4830 -25.5730 -25.5451 -21.7565 -21.7321 -21.7269
   -19.1990 -18.9945 -18.9535 -18.4679 -18.2317 -18.2271 -15.5673 -15.5146
   -15.3763 -15.3602 -15.2828 -12.2630 -10.0325 -10.0134  -9.7756  -9.4725
    -9.0894  -9.0332  -8.9296  -8.8080  -8.8021  -8.6305  -8.5858  -1.0149
     1.1886   1.2175   2.0680   2.8078   2.8778   2.8832   3.4967   3.6122
     3.6305   4.8158   4.8902   4.9810   5.4329   5.5156   5.5374   5.9597
     6.0005

          k = 0.0000 0.2000 0.0000 ( 11172 PWs)   bands (ev):

   -47.1269 -44.3667 -43.4830 -25.5684 -25.5498 -21.7563 -21.7314 -21.7262
   -19.1990 -18.9945 -18.9535 -18.4648 -18.2278 -18.2241 -15.5687 -15.5152
   -15.3763 -15.3605 -15.2816 -12.3525 -10.1739 -10.1103  -9.7247  -9.4507
    -8.9471  -8.9186  -8.8282  -8.7890  -8.7533  -8.6581  -8.6337  -0.8887
     1.3592   1.3768   1.5950   2.6258   2.7384   2.7470   3.1829   3.4405
     3.5170   4.2812   4.3621   4.7755   5.5468   5.7191   5.9853   6.4653
     6.6526

          k = 0.0000 0.4000 0.0000 ( 11172 PWs)   bands (ev):

   -47.1269 -44.3667 -43.4830 -25.5683 -25.5499 -21.7564 -21.7317 -21.7263
   -19.1991 -18.9944 -18.9535 -18.4650 -18.2275 -18.2257 -15.5695 -15.5145
   -15.3765 -15.3606 -15.2807 -12.3485 -10.1421 -10.0187  -9.7115  -9.5170
    -9.0114  -8.9075  -8.8370  -8.7850  -8.7380  -8.7300  -8.6236  -0.8780
     1.3405   1.3737   1.6185   2.6856   2.7921   2.8286   3.1224   3.5035
     3.5267   4.2879   4.8029   4.8137   5.3901   5.6031   5.7692   5.9867
     6.6062

          k = 0.0000 0.2000-0.2000 ( 11178 PWs)   bands (ev):

   -47.1269 -44.3667 -43.4830 -25.5710 -25.5472 -21.7563 -21.7316 -21.7263
   -19.1988 -18.9945 -18.9535 -18.4654 -18.2287 -18.2244 -15.5684 -15.5149
   -15.3763 -15.3603 -15.2822 -12.3361 -10.1724 -10.1029  -9.7240  -9.4504
    -8.9657  -8.9063  -8.8158  -8.7709  -8.7530  -8.7070  -8.6507  -0.9142
     1.3403   1.3473   1.7240   2.6738   2.7178   2.7827   3.1196   3.4639
     3.5331   4.3405   4.4596   4.7902   5.4997   5.7008   5.9112   6.5017
     6.5974

          k = 0.2000 0.0000-0.2000 ( 11178 PWs)   bands (ev):

   -47.1269 -44.3667 -43.4830 -25.5741 -25.5441 -21.7565 -21.7315 -21.7262
   -19.1990 -18.9944 -18.9534 -18.4653 -18.2296 -18.2234 -15.5691 -15.5152
   -15.3763 -15.3605 -15.2814 -12.3398 -10.1401 -10.1100  -9.6889  -9.4963
    -8.9721  -8.8971  -8.8506  -8.7767  -8.7739  -8.6830  -8.6312  -0.9128
     1.3271   1.3451   1.7379   2.6663   2.6824   2.8355   3.1374   3.4803
     3.5315   4.3120   4.4768   4.7927   5.4852   5.6661   5.9489   6.4941
     6.6151

          k =-0.2000 0.0000-0.2000 ( 11178 PWs)   bands (ev):

   -47.1269 -44.3667 -43.4830 -25.5702 -25.5480 -21.7565 -21.7314 -21.7263
   -19.1984 -18.9945 -18.9535 -18.4657 -18.2294 -18.2239 -15.5682 -15.5151
   -15.3763 -15.3604 -15.2818 -12.3386 -10.1327 -10.1271  -9.7284  -9.4436
    -8.9597  -8.8953  -8.8535  -8.7968  -8.7656  -8.6799  -8.6385  -0.8919
     1.3211   1.3560   1.6351   2.6205   2.7667   2.7867   3.2108   3.5008
     3.5206   4.3549   4.4571   4.8028   5.5335   5.6310   6.1240   6.2991
     6.4918

          k = 0.0000 0.2000-0.4000 ( 11176 PWs)   bands (ev):

   -47.1269 -44.3667 -43.4830 -25.5742 -25.5439 -21.7564 -21.7318 -21.7265
   -19.1984 -18.9945 -18.9534 -18.4663 -18.2301 -18.2248 -15.5687 -15.5145
   -15.3763 -15.3603 -15.2822 -12.3191 -10.1403 -10.0618  -9.7013  -9.4969
    -9.0127  -8.8904  -8.8711  -8.7924  -8.7756  -8.6852  -8.6365  -0.9238
     1.2943   1.3308   1.7916   2.6979   2.7752   2.9140   3.0417   3.5109
     3.5754   4.3625   4.7908   4.8581   5.3842   5.5788   5.7326   6.2722
     6.5572

          k = 0.2000 0.0000-0.4000 ( 11176 PWs)   bands (ev):

   -47.1269 -44.3667 -43.4830 -25.5751 -25.5430 -21.7567 -21.7316 -21.7264
   -19.1988 -18.9944 -18.9534 -18.4660 -18.2307 -18.2238 -15.5691 -15.5149
   -15.3764 -15.3606 -15.2810 -12.3270 -10.1087 -10.0599  -9.6508  -9.5580
    -9.0185  -8.8952  -8.8517  -8.7996  -8.7575  -8.7256  -8.6377  -0.9170
     1.2848   1.3368   1.8008   2.6934   2.7621   2.9453   3.0626   3.5219
     3.5569   4.3555   4.8139   4.8533   5.3352   5.5822   5.7463   6.2541
     6.5655

          k =-0.2000 0.0000-0.4000 ( 11176 PWs)   bands (ev):

   -47.1269 -44.3667 -43.4830 -25.5731 -25.5451 -21.7567 -21.7315 -21.7264
   -19.1984 -18.9945 -18.9534 -18.4662 -18.2306 -18.2240 -15.5686 -15.5149
   -15.3764 -15.3605 -15.2813 -12.3263 -10.1108 -10.0637  -9.6961  -9.5045
    -9.0146  -8.8830  -8.8622  -8.8061  -8.7581  -8.7227  -8.6417  -0.9043
     1.2790   1.3437   1.7330   2.7061   2.8020   2.8608   3.1379   3.5150
     3.5671   4.3738   4.8331   4.8579   5.3650   5.5269   5.8249   6.2268
     6.4899

          k = 0.0000 0.4000 0.2000 ( 11176 PWs)   bands (ev):

   -47.1269 -44.3667 -43.4830 -25.5708 -25.5473 -21.7565 -21.7318 -21.7264
   -19.1988 -18.9945 -18.9534 -18.4656 -18.2284 -18.2261 -15.5694 -15.5144
   -15.3764 -15.3605 -15.2810 -12.3341 -10.1207 -10.0072  -9.6983  -9.5450
    -9.0320  -8.9044  -8.8726  -8.8273  -8.7517  -8.6739  -8.6179  -0.8896
     1.3049   1.3435   1.6745   2.7508   2.7884   2.8414   3.1533   3.5164
     3.5718   4.4201   4.7997   4.8340   5.3505   5.5112   5.7711   6.0466
     6.4603

          k = 0.0000 0.4000-0.2000 ( 11176 PWs)   bands (ev):

   -47.1269 -44.3667 -43.4830 -25.5708 -25.5473 -21.7563 -21.7318 -21.7265
   -19.1988 -18.9945 -18.9534 -18.4658 -18.2285 -18.2261 -15.5689 -15.5144
   -15.3764 -15.3604 -15.2817 -12.3281 -10.1468 -10.0182  -9.7107  -9.5171
    -9.0197  -8.8959  -8.8442  -8.8074  -8.7574  -8.6937  -8.6430  -0.9092
     1.3074   1.3410   1.7542   2.7232   2.7724   2.8990   3.0547   3.5082
     3.5621   4.4029   4.7830   4.8358   5.3750   5.5884   5.6791   6.1360
     6.5383

          k = 0.0000 0.4000-0.4000 ( 11190 PWs)   bands (ev):

   -47.1269 -44.3667 -43.4830 -25.5741 -25.5440 -21.7563 -21.7321 -21.7267
   -19.1984 -18.9945 -18.9534 -18.4668 -18.2301 -18.2265 -15.5686 -15.5140
   -15.3763 -15.3602 -15.2825 -12.3008 -10.1430  -9.9816  -9.7024  -9.5476
    -9.0355  -8.9524  -8.8799  -8.7990  -8.7560  -8.6817  -8.6239  -0.9394
     1.2467   1.3150   1.8969   2.7222   2.7792   2.9561   3.0946   3.5372
     3.6154   4.5975   4.8283   4.8967   5.3360   5.4981   5.6388   5.9713
     6.4931

          k = 0.4000 0.0000-0.4000 ( 11190 PWs)   bands (ev):

   -47.1269 -44.3667 -43.4830 -25.5745 -25.5436 -21.7570 -21.7316 -21.7265
   -19.1991 -18.9944 -18.9534 -18.4665 -18.2316 -18.2239 -15.5687 -15.5150
   -15.3765 -15.3607 -15.2805 -12.3150 -10.0835  -9.9927  -9.6748  -9.5642
    -9.0722  -8.9005  -8.8345  -8.8004  -8.7593  -8.7454  -8.6760  -0.9286
     1.2357   1.3275   1.9191   2.6815   2.8222   2.9996   3.0909   3.5610
     3.5857   4.6053   4.8647   4.8861   5.2875   5.4822   5.6344   5.9581
     6.5182

          k =-0.4000 0.0000-0.4000 ( 11190 PWs)   bands (ev):

   -47.1269 -44.3667 -43.4830 -25.5732 -25.5449 -21.7570 -21.7316 -21.7265
   -19.1988 -18.9944 -18.9535 -18.4666 -18.2316 -18.2241 -15.5684 -15.5150
   -15.3764 -15.3606 -15.2807 -12.3145 -10.0860  -9.9935  -9.7049  -9.5292
    -9.0709  -8.8945  -8.8414  -8.7868  -8.7862  -8.7276  -8.6828  -0.9209
     1.2316   1.3313   1.8695   2.7207   2.8506   2.9104   3.1419   3.5472
     3.6047   4.6806   4.8199   4.8803   5.3593   5.3814   5.7022   5.9491
     6.5097

          k =-0.2000 0.2000-0.2000 ( 11200 PWs)   bands (ev):

   -47.1269 -44.3667 -43.4830 -25.5702 -25.5480 -21.7562 -21.7316 -21.7265
   -19.1984 -18.9945 -18.9535 -18.4662 -18.2295 -18.2249 -15.5677 -15.5148
   -15.3762 -15.3601 -15.2830 -12.3194 -10.1491 -10.1242  -9.7462  -9.4111
    -8.9724  -8.9046  -8.8086  -8.7697  -8.7458  -8.7184  -8.7000  -0.9320
     1.3039   1.3341   1.7892   2.6878   2.7567   2.7983   3.1113   3.5241
     3.5353   4.4809   4.4945   4.8105   5.4745   5.6747   5.9106   6.4011
     6.4814

          k = 0.2000-0.2000-0.2000 ( 11200 PWs)   bands (ev):

   -47.1269 -44.3667 -43.4830 -25.5740 -25.5441 -21.7564 -21.7317 -21.7263
   -19.1991 -18.9945 -18.9534 -18.4657 -18.2295 -18.2245 -15.5690 -15.5149
   -15.3764 -15.3605 -15.2815 -12.3299 -10.1419 -10.0708  -9.6745  -9.5308
    -8.9844  -8.9059  -8.8609  -8.7916  -8.7489  -8.7069  -8.6274  -0.9141
     1.3088   1.3237   1.7670   2.7198   2.7358   2.7895   3.1760   3.4923
     3.5512   4.4633   4.5198   4.8072   5.4160   5.6125   5.9396   6.3497
     6.5186

          k =-0.2000 0.2000-0.4000 ( 11163 PWs)   bands (ev):

   -47.1269 -44.3667 -43.4830 -25.5730 -25.5452 -21.7564 -21.7317 -21.7266
   -19.1984 -18.9945 -18.9534 -18.4669 -18.2307 -18.2251 -15.5678 -15.5146
   -15.3763 -15.3602 -15.2827 -12.3030 -10.1169 -10.0849  -9.7374  -9.4403
    -9.0135  -8.9141  -8.8607  -8.7839  -8.7558  -8.7161  -8.6699  -0.9436
     1.2532   1.3146   1.8446   2.7475   2.8044   2.9178   3.0600   3.5320
     3.6129   4.5146   4.8377   4.8906   5.3569   5.5384   5.7518   6.2392
     6.4164

          k = 0.2000-0.2000-0.4000 ( 11163 PWs)   bands (ev):

   -47.1269 -44.3667 -43.4830 -25.5750 -25.5431 -21.7565 -21.7318 -21.7265
   -19.1988 -18.9944 -18.9533 -18.4665 -18.2307 -18.2248 -15.5686 -15.5147
   -15.3763 -15.3604 -15.2817 -12.3096 -10.0958 -10.0675  -9.6895  -9.5183
    -9.0189  -8.9431  -8.8551  -8.8000  -8.7522  -8.7131  -8.6363  -0.9329
     1.2567   1.3092   1.8263   2.7490   2.8126   2.9201   3.0966   3.5251
     3.6023   4.5086   4.8430   4.9256   5.3014   5.4814   5.7794   6.2000
     6.4340

          k = 0.2000 0.2000-0.4000 ( 11163 PWs)   bands (ev):

   -47.1269 -44.3667 -43.4830 -25.5750 -25.5431 -21.7566 -21.7318 -21.7265
   -19.1988 -18.9944 -18.9533 -18.4664 -18.2306 -18.2249 -15.5689 -15.5147
   -15.3764 -15.3604 -15.2814 -12.3133 -10.1094 -10.0244  -9.6627  -9.5696
    -9.0332  -8.9084  -8.8677  -8.8117  -8.7969  -8.6895  -8.6140  -0.9346
     1.2686   1.3017   1.8850   2.7231   2.7841   2.8853   3.1616   3.5385
     3.5756   4.4802   4.7882   4.8704   5.3209   5.5618   5.6870   6.2529
     6.5108

          k =-0.2000 0.4000 0.2000 ( 11163 PWs)   bands (ev):

   -47.1269 -44.3667 -43.4830 -25.5739 -25.5442 -21.7564 -21.7320 -21.7265
   -19.1991 -18.9944 -18.9533 -18.4661 -18.2292 -18.2262 -15.5690 -15.5143
   -15.3764 -15.3604 -15.2815 -12.3141 -10.1252 -10.0118  -9.6927  -9.5431
    -9.0413  -8.9138  -8.8655  -8.8178  -8.7760  -8.6633  -8.6319  -0.9167
     1.2732   1.3050   1.7885   2.7598   2.8181   2.9015   3.0890   3.5268
     3.6072   4.5738   4.8256   4.8630   5.3419   5.4681   5.7283   6.0938
     6.3647

          k =-0.2000-0.4000-0.2000 ( 11163 PWs)   bands (ev):

   -47.1269 -44.3667 -43.4830 -25.5701 -25.5481 -21.7566 -21.7318 -21.7265
   -19.1984 -18.9945 -18.9535 -18.4662 -18.2290 -18.2267 -15.5690 -15.5144
   -15.3764 -15.3604 -15.2814 -12.3201 -10.0856 -10.0006  -9.7299  -9.5295
    -9.0529  -8.9320  -8.8776  -8.8281  -8.7986  -8.6275  -8.6159  -0.9186
     1.2905   1.2965   1.7690   2.7752   2.8105   2.8449   3.2599   3.5627
     3.5633   4.4525   4.7558   4.8715   5.3324   5.5312   5.7052   6.1357
     6.5116

          k = 0.2000-0.4000 0.2000 ( 11163 PWs)   bands (ev):

   -47.1269 -44.3667 -43.4830 -25.5701 -25.5481 -21.7563 -21.7319 -21.7267
   -19.1984 -18.9945 -18.9535 -18.4666 -18.2292 -18.2266 -15.5681 -15.5143
   -15.3763 -15.3601 -15.2828 -12.3080 -10.1266 -10.0452  -9.7444  -9.4638
    -9.0299  -8.8919  -8.8874  -8.7908  -8.7772  -8.6796  -8.6483  -0.9477
     1.2920   1.2944   1.8755   2.7219   2.8015   2.8811   3.1388   3.5339
     3.5740   4.4937   4.7633   4.8604   5.3964   5.6012   5.6251   6.1752
     6.4798

          k =-0.2000 0.4000-0.4000 ( 11170 PWs)   bands (ev):

   -47.1269 -44.3667 -43.4830 -25.5729 -25.5452 -21.7563 -21.7321 -21.7268
   -19.1984 -18.9945 -18.9534 -18.4674 -18.2306 -18.2269 -15.5676 -15.5143
   -15.3762 -15.3600 -15.2832 -12.2811 -10.1146 -10.0243  -9.7528  -9.4590
    -9.0494  -8.9776  -8.8878  -8.7975  -8.7784  -8.6675  -8.6238  -0.9786
     1.2230   1.2722   1.9768   2.7528   2.8115   2.9157   3.2345   3.5657
     3.6350   4.6966   4.8505   4.9321   5.3533   5.5286   5.6178   5.9583
     6.4089

          k = 0.2000-0.4000-0.4000 ( 11170 PWs)   bands (ev):

   -47.1269 -44.3667 -43.4830 -25.5749 -25.5432 -21.7564 -21.7322 -21.7267
   -19.1989 -18.9944 -18.9533 -18.4672 -18.2307 -18.2266 -15.5681 -15.5143
   -15.3763 -15.3602 -15.2825 -12.2850 -10.1016 -10.0159  -9.7337  -9.4913
    -9.0577  -8.9947  -8.8788  -8.7986  -8.7784  -8.6696  -8.6104  -0.9602
     1.2206   1.2714   1.9089   2.7911   2.8340   2.9321   3.1837   3.5540
     3.6658   4.8018   4.8612   4.9426   5.2947   5.3941   5.6942   5.9891
     6.2822

          k = 0.4000 0.2000-0.4000 ( 11170 PWs)   bands (ev):

   -47.1269 -44.3667 -43.4830 -25.5744 -25.5437 -21.7568 -21.7319 -21.7266
   -19.1991 -18.9944 -18.9534 -18.4670 -18.2317 -18.2250 -15.5681 -15.5149
   -15.3764 -15.3605 -15.2815 -12.2939 -10.0688 -10.0115  -9.7165  -9.5204
    -9.0645  -8.9384  -8.8792  -8.8209  -8.7909  -8.6921  -8.6275  -0.9614
     1.2149   1.2823   1.9700   2.7404   2.8399   2.9375   3.2408   3.5710
     3.6173   4.7080   4.8952   4.9462   5.2605   5.4767   5.6249   5.9596
     6.4349

          k =-0.4000-0.2000-0.4000 ( 11170 PWs)   bands (ev):

   -47.1269 -44.3667 -43.4830 -25.5731 -25.5450 -21.7569 -21.7318 -21.7266
   -19.1988 -18.9944 -18.9535 -18.4669 -18.2315 -18.2252 -15.5683 -15.5148
   -15.3764 -15.3605 -15.2810 -12.2997 -10.0469  -9.9864  -9.7215  -9.5417
    -9.0895  -8.9346  -8.8689  -8.8475  -8.8141  -8.6650  -8.6110  -0.9516
     1.2148   1.2842   1.9516   2.7450   2.8678   2.8810   3.3251   3.5819
     3.5988   4.6773   4.7964   4.9230   5.4159   5.4560   5.5753   5.9411
     6.4189

          k = 0.4000-0.2000 0.4000 ( 11170 PWs)   bands (ev):

   -47.1269 -44.3667 -43.4830 -25.5731 -25.5450 -21.7566 -21.7318 -21.7267
   -19.1988 -18.9944 -18.9535 -18.4673 -18.2317 -18.2252 -15.5674 -15.5149
   -15.3763 -15.3603 -15.2822 -12.2874 -10.0843 -10.0418  -9.7483  -9.4522
    -9.0496  -8.9165  -8.9004  -8.8001  -8.7866  -8.6958  -8.6590  -0.9668
     1.2075   1.2882   1.9405   2.7787   2.8470   2.9304   3.1831   3.5644
     3.6492   4.7858   4.8967   4.9511   5.2828   5.4092   5.7255   5.9648
     6.3372

          k =-0.4000 0.4000 0.2000 ( 11170 PWs)   bands (ev):

   -47.1269 -44.3667 -43.4830 -25.5749 -25.5432 -21.7564 -21.7322 -21.7267
   -19.1989 -18.9944 -18.9533 -18.4671 -18.2306 -18.2266 -15.5683 -15.5142
   -15.3763 -15.3602 -15.2823 -12.2873 -10.1138  -9.9797  -9.7180  -9.5362
    -9.0551  -8.9765  -8.8853  -8.8226  -8.7845  -8.6438  -8.6139  -0.9612
     1.2254   1.2681   1.9529   2.7680   2.8091   2.9136   3.2404   3.5600
     3.6330   4.7212   4.8683   4.9304   5.3006   5.4858   5.6156   5.9737
     6.4086

          k =-0.4000 0.4000-0.4000 ( 11215 PWs)   bands (ev):

   -47.1269 -44.3667 -43.4830 -25.5730 -25.5451 -21.7563 -21.7321 -21.7270
   -19.1989 -18.9945 -18.9535 -18.4682 -18.2318 -18.2271 -15.5667 -15.5146
   -15.3762 -15.3600 -15.2835 -12.2550 -10.0619 -10.0489  -9.7756  -9.4188
    -9.0663  -9.0271  -8.9485  -8.8003  -8.7796  -8.6440  -8.6064  -1.0239
     1.1846   1.2202   2.0606   2.8139   2.8578   2.8992   3.4334   3.6272
     3.6522   4.8894   4.9384   5.0152   5.3254   5.5014   5.6504   5.9478
     5.9748

          k = 0.4000-0.4000-0.4000 ( 11215 PWs)   bands (ev):

   -47.1269 -44.3667 -43.4830 -25.5743 -25.5438 -21.7564 -21.7322 -21.7269
   -19.1992 -18.9944 -18.9535 -18.4679 -18.2318 -18.2269 -15.5672 -15.5146
   -15.3762 -15.3601 -15.2829 -12.2590 -10.0612 -10.0206  -9.7682  -9.4519
    -9.0735  -9.0325  -8.9432  -8.7991  -8.7878  -8.6418  -8.5952  -1.0136
     1.1902   1.2142   2.0428   2.8180   2.8617   2.9064   3.4325   3.6048
     3.6732   4.8690   4.9769   5.0350   5.2957   5.4403   5.6328   5.9362
     6.0241

     highest occupied level (ev):     6.6911

!    total energy              =   -1440.84292414 Ry
     total all-electron energy =     -1440.842924 Ry
     estimated scf accuracy    <          2.8E-11 Ry

     The total energy is the sum of the following terms:
     one-electron contribution =    -592.88199442 Ry
     hartree contribution      =     345.86484295 Ry
     xc contribution           =    -129.30768090 Ry
     ewald contribution        =    -342.76060903 Ry
     one-center paw contrib.   =    -721.75748274 Ry

     convergence has been achieved in  37 iterations

     Forces acting on atoms (cartesian axes, Ry/au):

     atom    1 type  1   force =     0.01822230    0.01197491    0.01822230
     atom    2 type  2   force =    -0.01379598   -0.01594941    0.01032855
     atom    3 type  1   force =     0.00989998   -0.01508200    0.00989998
     atom    4 type  2   force =     0.01032855   -0.01594941   -0.01379598
     atom    5 type  3   force =    -0.23433640   -0.25904472   -0.23433640
     atom    6 type  4   force =     0.06539034    0.14299098    0.06539034
     atom    7 type  5   force =     0.86091630    0.05889760    0.05601374
     atom    8 type  5   force =    -0.82536676   -0.00141289    0.00175455
     atom    9 type  5   force =     0.05637859    0.87053496    0.05637859
     atom   10 type  5   force =    -0.00540522   -0.83444473   -0.00540522
     atom   11 type  5   force =     0.05601374    0.05889760    0.86091630
     atom   12 type  5   force =     0.00175455   -0.00141289   -0.82536676

     Total force =     2.127638     Total SCF correction =     0.000017


     Computing stress (Cartesian axis) and pressure

          total   stress  (Ry/bohr**3)                   (kbar)     P=      497.34
   0.00339457  -0.00039689  -0.00058839          499.36      -58.39      -86.55
  -0.00039689   0.00335339  -0.00039689          -58.39      493.30      -58.39
  -0.00058839  -0.00039689   0.00339457          -86.55      -58.39      499.36


     BFGS Geometry Optimization
     Energy error            =      0.0E+00 Ry
     Gradient error          =      8.7E-01 Ry/Bohr
     Cell gradient error     =      5.0E+02 kbar

     number of scf cycles    =   1
     number of bfgs steps    =   0

     enthalpy           new  =   -1440.8429241383 Ry

     new trust radius        =       0.5000000000 bohr
     new conv_thr            =            1.0E-10 Ry

     new unit-cell volume =   1640.75834 a.u.^3 (   243.13530 Ang^3 )
     density =      2.93707 g/cm^3

CELL_PARAMETERS (angstrom)
   6.242835169  -0.033789494  -0.050092137
  -0.033789494   6.239329347  -0.033789494
  -0.050092137  -0.033789494   6.242835169

ATOMIC_POSITIONS (angstrom)
Na            0.0057161053        0.0037356516        0.0057161053
K             3.1001456054        3.0977169777       -0.0386003904
Na            3.0995140971       -0.0386072796        3.0995140971
K            -0.0386003904        3.0977169777        3.1001456054
Zr            1.4664104809        1.4615777062        1.4664104809
Sn            4.6395554647        4.6739426276        4.6395554647
O             1.8336876177        0.0086589859        0.0029601408
O             4.4201837937       -0.0243755213       -0.0349080504
O             0.0078061693        1.8357587392        0.0078061693
O            -0.0256104166        4.4148427483       -0.0256104166
O             0.0029601408        0.0086589859        1.8336876177
O            -0.0349080504       -0.0243755213        4.4201837937



     Writing config-only to output data dir ./K4ZrSnO6.save/
     NEW-OLD atomic charge density approx. for the potential

     Check: negative core charge=   -0.000001
     extrapolated charge  110.92371, renormalised to   98.00000

     total cpu time spent up to now is      373.0 secs

     per-process dynamical memory:   113.6 Mb

     Self-consistent Calculation

     iteration #  1     ecut=    60.00 Ry     beta= 0.70
     Davidson diagonalization with overlap
     c_bands:  1 eigenvalues not converged
     c_bands:  3 eigenvalues not converged
     c_bands:  3 eigenvalues not converged
     c_bands:  2 eigenvalues not converged
     c_bands:  2 eigenvalues not converged
     c_bands:  2 eigenvalues not converged
     c_bands:  3 eigenvalues not converged
     c_bands:  3 eigenvalues not converged
     c_bands:  2 eigenvalues not converged
     c_bands:  4 eigenvalues not converged
     c_bands:  2 eigenvalues not converged
     c_bands:  3 eigenvalues not converged
     c_bands:  4 eigenvalues not converged
     c_bands:  3 eigenvalues not converged
     c_bands:  2 eigenvalues not converged
     c_bands:  3 eigenvalues not converged
     c_bands:  4 eigenvalues not converged
     c_bands:  3 eigenvalues not converged
     c_bands:  3 eigenvalues not converged
     c_bands:  3 eigenvalues not converged
     c_bands:  4 eigenvalues not converged
     c_bands:  2 eigenvalues not converged
     c_bands:  2 eigenvalues not converged
     c_bands:  3 eigenvalues not converged
     c_bands:  4 eigenvalues not converged
     c_bands:  4 eigenvalues not converged
     c_bands:  5 eigenvalues not converged
     c_bands:  5 eigenvalues not converged
     c_bands:  4 eigenvalues not converged
     c_bands:  2 eigenvalues not converged
     c_bands:  3 eigenvalues not converged
     c_bands:  5 eigenvalues not converged
     c_bands:  5 eigenvalues not converged
     c_bands:  4 eigenvalues not converged
     c_bands:  2 eigenvalues not converged
     c_bands:  3 eigenvalues not converged
     c_bands:  3 eigenvalues not converged
     c_bands:  3 eigenvalues not converged
     c_bands:  5 eigenvalues not converged
     ethr =  1.00E-06,  avg # of iterations = 20.0

     total cpu time spent up to now is      401.2 secs

     total energy              =   -1294.91501857 Ry
     estimated scf accuracy    <     144.21482547 Ry

     iteration #  2     ecut=    60.00 Ry     beta= 0.70
     Davidson diagonalization with overlap
     ethr =  1.00E-02,  avg # of iterations = 10.4

     total cpu time spent up to now is      419.9 secs

     total energy              =   -1396.37588319 Ry
     estimated scf accuracy    <     633.70324653 Ry

     iteration #  3     ecut=    60.00 Ry     beta= 0.70
     Davidson diagonalization with overlap
     ethr =  1.00E-02,  avg # of iterations =  8.9

     total cpu time spent up to now is      435.3 secs

     total energy              =   -1454.14769483 Ry
     estimated scf accuracy    <      51.71584541 Ry

     iteration #  4     ecut=    60.00 Ry     beta= 0.70
     Davidson diagonalization with overlap
     ethr =  1.00E-02,  avg # of iterations =  2.0

     total cpu time spent up to now is      441.2 secs

     total energy              =   -1447.93810034 Ry
     estimated scf accuracy    <      27.06194155 Ry

     iteration #  5     ecut=    60.00 Ry     beta= 0.70
     Davidson diagonalization with overlap
     ethr =  1.00E-02,  avg # of iterations =  2.1

     total cpu time spent up to now is      446.5 secs

     total energy              =   -1445.47914630 Ry
     estimated scf accuracy    <      14.54308790 Ry

     iteration #  6     ecut=    60.00 Ry     beta= 0.70
     Davidson diagonalization with overlap
     ethr =  1.00E-02,  avg # of iterations =  3.8

     total cpu time spent up to now is      452.5 secs

     total energy              =   -1445.79983084 Ry
     estimated scf accuracy    <       8.77503615 Ry

     iteration #  7     ecut=    60.00 Ry     beta= 0.70
     Davidson diagonalization with overlap
     ethr =  8.95E-03,  avg # of iterations =  1.4

     total cpu time spent up to now is      457.4 secs

     total energy              =   -1445.88741096 Ry
     estimated scf accuracy    <       8.30861459 Ry

     iteration #  8     ecut=    60.00 Ry     beta= 0.70
     Davidson diagonalization with overlap
     ethr =  8.48E-03,  avg # of iterations =  1.0

     total cpu time spent up to now is      462.2 secs

     total energy              =   -1445.02859166 Ry
     estimated scf accuracy    <       8.31426818 Ry

     iteration #  9     ecut=    60.00 Ry     beta= 0.70
     Davidson diagonalization with overlap
     ethr =  8.48E-03,  avg # of iterations =  1.0

     total cpu time spent up to now is      467.0 secs

     total energy              =   -1443.73294825 Ry
     estimated scf accuracy    <       6.55922239 Ry

     iteration # 10     ecut=    60.00 Ry     beta= 0.70
     Davidson diagonalization with overlap
     ethr =  6.69E-03,  avg # of iterations =  1.8

     total cpu time spent up to now is      472.2 secs

     total energy              =   -1442.09850904 Ry
     estimated scf accuracy    <       3.80638838 Ry

     iteration # 11     ecut=    60.00 Ry     beta= 0.70
     Davidson diagonalization with overlap
     ethr =  3.88E-03,  avg # of iterations =  5.1

     total cpu time spent up to now is      481.5 secs

     total energy              =   -1446.86236764 Ry
     estimated scf accuracy    <      22.91455515 Ry

     iteration # 12     ecut=    60.00 Ry     beta= 0.70
     Davidson diagonalization with overlap
     ethr =  3.88E-03,  avg # of iterations =  5.0

     negative rho (up, down):  1.560E-03 0.000E+00

     total cpu time spent up to now is      488.6 secs

     total energy              =   -1448.81116183 Ry
     estimated scf accuracy    <      39.92917765 Ry

     iteration # 13     ecut=    60.00 Ry     beta= 0.70
     Davidson diagonalization with overlap
     ethr =  3.88E-03,  avg # of iterations =  2.2

     negative rho (up, down):  7.556E-03 0.000E+00

     total cpu time spent up to now is      493.9 secs

     total energy              =   -1448.50536625 Ry
     estimated scf accuracy    <      45.87801845 Ry

     iteration # 14     ecut=    60.00 Ry     beta= 0.70
     Davidson diagonalization with overlap
     ethr =  3.88E-03,  avg # of iterations =  2.4

     negative rho (up, down):  2.126E-01 0.000E+00

     total cpu time spent up to now is      499.3 secs

     total energy              =   -1441.00228139 Ry
     estimated scf accuracy    <      45.67319637 Ry

     iteration # 15     ecut=    60.00 Ry     beta= 0.70
     Davidson diagonalization with overlap
     ethr =  3.88E-03,  avg # of iterations =  8.6

     negative rho (up, down):  4.680E-04 0.000E+00

     total cpu time spent up to now is      512.7 secs

     total energy              =   -1438.73405125 Ry
     estimated scf accuracy    <      80.18230208 Ry

     iteration # 16     ecut=    60.00 Ry     beta= 0.70
     Davidson diagonalization with overlap
     ethr =  3.88E-03,  avg # of iterations =  6.5

     negative rho (up, down):  9.308E-02 0.000E+00

     total cpu time spent up to now is      523.7 secs

     total energy              =   -1445.01400906 Ry
     estimated scf accuracy    <      23.74192690 Ry

     iteration # 17     ecut=    60.00 Ry     beta= 0.70
     Davidson diagonalization with overlap
     ethr =  3.88E-03,  avg # of iterations =  6.4

     negative rho (up, down):  1.523E-02 0.000E+00

     total cpu time spent up to now is      532.1 secs

     total energy              =   -1444.07643225 Ry
     estimated scf accuracy    <      33.55171906 Ry

     iteration # 18     ecut=    60.00 Ry     beta= 0.70
     Davidson diagonalization with overlap
     ethr =  3.88E-03,  avg # of iterations =  5.8

     total cpu time spent up to now is      539.8 secs

     total energy              =   -1441.29515881 Ry
     estimated scf accuracy    <      21.64296775 Ry

     iteration # 19     ecut=    60.00 Ry     beta= 0.70
     Davidson diagonalization with overlap
     ethr =  3.88E-03,  avg # of iterations =  6.1

     negative rho (up, down):  1.059E-02 0.000E+00

     total cpu time spent up to now is      548.7 secs

     total energy              =   -1442.65461990 Ry
     estimated scf accuracy    <       3.02587173 Ry

     iteration # 20     ecut=    60.00 Ry     beta= 0.70
     Davidson diagonalization with overlap
     ethr =  3.09E-03,  avg # of iterations =  5.2

     negative rho (up, down):  1.088E-03 0.000E+00

     total cpu time spent up to now is      555.6 secs

     total energy              =   -1442.77052421 Ry
     estimated scf accuracy    <       1.24459148 Ry

     iteration # 21     ecut=    60.00 Ry     beta= 0.70
     Davidson diagonalization with overlap
     ethr =  1.27E-03,  avg # of iterations =  4.4

     total cpu time spent up to now is      561.9 secs

     total energy              =   -1442.74242205 Ry
     estimated scf accuracy    <       0.61298345 Ry

     iteration # 22     ecut=    60.00 Ry     beta= 0.70
     Davidson diagonalization with overlap
     ethr =  6.25E-04,  avg # of iterations =  4.0

     total cpu time spent up to now is      568.2 secs

     total energy              =   -1442.74180800 Ry
     estimated scf accuracy    <       0.21042460 Ry

     iteration # 23     ecut=    60.00 Ry     beta= 0.70
     Davidson diagonalization with overlap
     ethr =  2.15E-04,  avg # of iterations =  5.2

     total cpu time spent up to now is      575.8 secs

     total energy              =   -1442.76012743 Ry
     estimated scf accuracy    <       0.06799572 Ry

     iteration # 24     ecut=    60.00 Ry     beta= 0.70
     Davidson diagonalization with overlap
     ethr =  6.94E-05,  avg # of iterations =  5.6

     total cpu time spent up to now is      583.0 secs

     total energy              =   -1442.75580652 Ry
     estimated scf accuracy    <       0.04095951 Ry

     iteration # 25     ecut=    60.00 Ry     beta= 0.70
     Davidson diagonalization with overlap
     ethr =  4.18E-05,  avg # of iterations =  6.0

     total cpu time spent up to now is      591.4 secs

     total energy              =   -1442.75812424 Ry
     estimated scf accuracy    <       0.04613511 Ry

     iteration # 26     ecut=    60.00 Ry     beta= 0.70
     Davidson diagonalization with overlap
     ethr =  4.18E-05,  avg # of iterations =  6.5

     total cpu time spent up to now is      598.8 secs

     total energy              =   -1442.76115816 Ry
     estimated scf accuracy    <       0.00679784 Ry

     iteration # 27     ecut=    60.00 Ry     beta= 0.70
     Davidson diagonalization with overlap
     ethr =  6.94E-06,  avg # of iterations =  7.2

     total cpu time spent up to now is      606.8 secs

     total energy              =   -1442.76151325 Ry
     estimated scf accuracy    <       0.00248756 Ry

     iteration # 28     ecut=    60.00 Ry     beta= 0.70
     Davidson diagonalization with overlap
     ethr =  2.54E-06,  avg # of iterations =  7.3

     total cpu time spent up to now is      615.9 secs

     total energy              =   -1442.76184120 Ry
     estimated scf accuracy    <       0.00501141 Ry

     iteration # 29     ecut=    60.00 Ry     beta= 0.70
     Davidson diagonalization with overlap
     ethr =  2.54E-06,  avg # of iterations =  5.0

     total cpu time spent up to now is      622.4 secs

     total energy              =   -1442.76182762 Ry
     estimated scf accuracy    <       0.00154138 Ry

     iteration # 30     ecut=    60.00 Ry     beta= 0.70
     Davidson diagonalization with overlap
     ethr =  1.57E-06,  avg # of iterations =  7.7

     total cpu time spent up to now is      630.4 secs

     total energy              =   -1442.76198432 Ry
     estimated scf accuracy    <       0.00041424 Ry

     iteration # 31     ecut=    60.00 Ry     beta= 0.70
     Davidson diagonalization with overlap
     ethr =  4.23E-07,  avg # of iterations =  4.0

     total cpu time spent up to now is      636.4 secs

     total energy              =   -1442.76198172 Ry
     estimated scf accuracy    <       0.00019904 Ry

     iteration # 32     ecut=    60.00 Ry     beta= 0.70
     Davidson diagonalization with overlap
     ethr =  2.03E-07,  avg # of iterations =  7.4

     total cpu time spent up to now is      644.2 secs

     total energy              =   -1442.76200000 Ry
     estimated scf accuracy    <       0.00007859 Ry

     iteration # 33     ecut=    60.00 Ry     beta= 0.70
     Davidson diagonalization with overlap
     ethr =  8.02E-08,  avg # of iterations =  6.7

     total cpu time spent up to now is      651.4 secs

     total energy              =   -1442.76200445 Ry
     estimated scf accuracy    <       0.00000374 Ry

     iteration # 34     ecut=    60.00 Ry     beta= 0.70
     Davidson diagonalization with overlap
     ethr =  3.81E-09,  avg # of iterations =  6.9

     total cpu time spent up to now is      661.0 secs

     total energy              =   -1442.76200618 Ry
     estimated scf accuracy    <       0.00000588 Ry

     iteration # 35     ecut=    60.00 Ry     beta= 0.70
     Davidson diagonalization with overlap
     ethr =  3.81E-09,  avg # of iterations =  1.0

     total cpu time spent up to now is      665.7 secs

     total energy              =   -1442.76200580 Ry
     estimated scf accuracy    <       0.00000515 Ry

     iteration # 36     ecut=    60.00 Ry     beta= 0.70
     Davidson diagonalization with overlap
     ethr =  3.81E-09,  avg # of iterations =  7.2

     total cpu time spent up to now is      673.6 secs

     total energy              =   -1442.76200618 Ry
     estimated scf accuracy    <       0.00000125 Ry

     iteration # 37     ecut=    60.00 Ry     beta= 0.70
     Davidson diagonalization with overlap
     ethr =  1.27E-09,  avg # of iterations =  1.1

     total cpu time spent up to now is      678.4 secs

     total energy              =   -1442.76200611 Ry
     estimated scf accuracy    <       0.00000111 Ry

     iteration # 38     ecut=    60.00 Ry     beta= 0.70
     Davidson diagonalization with overlap
     ethr =  1.13E-09,  avg # of iterations =  2.7

     total cpu time spent up to now is      683.8 secs

     total energy              =   -1442.76200609 Ry
     estimated scf accuracy    <       0.00000051 Ry

     iteration # 39     ecut=    60.00 Ry     beta= 0.70
     Davidson diagonalization with overlap
     ethr =  5.22E-10,  avg # of iterations =  6.3

     total cpu time spent up to now is      691.3 secs

     total energy              =   -1442.76200614 Ry
     estimated scf accuracy    <       0.00000013 Ry

     iteration # 40     ecut=    60.00 Ry     beta= 0.70
     Davidson diagonalization with overlap
     ethr =  1.32E-10,  avg # of iterations =  6.6

     total cpu time spent up to now is      698.7 secs

     total energy              =   -1442.76200614 Ry
     estimated scf accuracy    <       0.00000002 Ry

     iteration # 41     ecut=    60.00 Ry     beta= 0.70
     Davidson diagonalization with overlap
     ethr =  2.07E-11,  avg # of iterations =  6.8

     total cpu time spent up to now is      707.4 secs

     total energy              =   -1442.76200615 Ry
     estimated scf accuracy    <       0.00000001 Ry

     iteration # 42     ecut=    60.00 Ry     beta= 0.70
     Davidson diagonalization with overlap
     ethr =  1.24E-11,  avg # of iterations =  1.0

     total cpu time spent up to now is      712.2 secs

     total energy              =   -1442.76200615 Ry
     estimated scf accuracy    <       0.00000001 Ry

     iteration # 43     ecut=    60.00 Ry     beta= 0.70
     Davidson diagonalization with overlap
     ethr =  1.19E-11,  avg # of iterations =  5.1

     total cpu time spent up to now is      719.7 secs

     total energy              =   -1442.76200615 Ry
     estimated scf accuracy    <       0.00000002 Ry

     iteration # 44     ecut=    60.00 Ry     beta= 0.70
     Davidson diagonalization with overlap
     ethr =  1.19E-11,  avg # of iterations =  4.5

     total cpu time spent up to now is      726.3 secs

     total energy              =   -1442.76200615 Ry
     estimated scf accuracy    <          4.1E-09 Ry

     iteration # 45     ecut=    60.00 Ry     beta= 0.70
     Davidson diagonalization with overlap
     ethr =  4.19E-12,  avg # of iterations =  7.1

     total cpu time spent up to now is      733.7 secs

     total energy              =   -1442.76200615 Ry
     estimated scf accuracy    <          7.9E-10 Ry

     iteration # 46     ecut=    60.00 Ry     beta= 0.70
     Davidson diagonalization with overlap
     ethr =  8.08E-13,  avg # of iterations =  6.3

     total cpu time spent up to now is      741.5 secs

     total energy              =   -1442.76200615 Ry
     estimated scf accuracy    <          1.1E-09 Ry

     iteration # 47     ecut=    60.00 Ry     beta= 0.70
     Davidson diagonalization with overlap
     ethr =  8.08E-13,  avg # of iterations =  2.9

     total cpu time spent up to now is      747.0 secs

     total energy              =   -1442.76200615 Ry
     estimated scf accuracy    <          3.6E-10 Ry

     iteration # 48     ecut=    60.00 Ry     beta= 0.70
     Davidson diagonalization with overlap
     ethr =  3.71E-13,  avg # of iterations =  6.3

     total cpu time spent up to now is      755.1 secs

     total energy              =   -1442.76200615 Ry
     estimated scf accuracy    <          3.5E-10 Ry

     iteration # 49     ecut=    60.00 Ry     beta= 0.70
     Davidson diagonalization with overlap
     ethr =  3.58E-13,  avg # of iterations =  1.0

     total cpu time spent up to now is      759.9 secs

     total energy              =   -1442.76200615 Ry
     estimated scf accuracy    <          2.3E-10 Ry

     iteration # 50     ecut=    60.00 Ry     beta= 0.70
     Davidson diagonalization with overlap
     ethr =  2.37E-13,  avg # of iterations =  2.2

     total cpu time spent up to now is      765.1 secs

     total energy              =   -1442.76200615 Ry
     estimated scf accuracy    <          1.5E-10 Ry

     iteration # 51     ecut=    60.00 Ry     beta= 0.70
     Davidson diagonalization with overlap
     ethr =  1.53E-13,  avg # of iterations =  5.0

     total cpu time spent up to now is      771.6 secs

     End of self-consistent calculation

          k = 0.0000 0.0000 0.0000 ( 11075 PWs)   bands (ev):

   -48.8923 -44.7674 -43.2463 -26.8811 -26.8782 -22.9673 -22.9647 -22.9404
   -20.9196 -20.7759 -20.7247 -16.7525 -16.7132 -16.6108 -16.5902 -16.5862
   -15.9040 -15.7216 -15.7114 -12.4503 -11.5454 -11.5441 -11.0512 -10.7640
   -10.7179 -10.6669 -10.6498 -10.2777 -10.2347 -10.1276 -10.1246  -1.7724
     0.8902   1.5609   1.5695   1.6321   1.6676   2.0415   2.1307   2.3634
     2.4455   2.8591   2.8944   3.4580   3.7114   3.7491   4.2555   4.7436
     4.7698

          k = 0.0015 0.0010 0.1908 ( 11172 PWs)   bands (ev):

   -48.8923 -44.7674 -43.2463 -26.8826 -26.8766 -22.9674 -22.9647 -22.9404
   -20.9198 -20.7762 -20.7250 -16.7528 -16.7134 -16.6111 -16.5902 -16.5862
   -15.9056 -15.7242 -15.7121 -12.4284 -11.5407 -11.5034 -11.0455 -10.8134
   -10.7758 -10.6668 -10.6211 -10.2736 -10.2389 -10.1268 -10.1241  -1.7846
     0.9771   1.5093   1.5305   1.6629   1.7198   1.9661   2.1995   2.3777
     2.4253   2.8786   3.0052   3.4643   3.6911   3.7028   4.2773   4.5581
     4.6851

          k = 0.0031 0.0021 0.3815 ( 11172 PWs)   bands (ev):

   -48.8923 -44.7674 -43.2463 -26.8841 -26.8751 -22.9674 -22.9648 -22.9404
   -20.9198 -20.7762 -20.7249 -16.7533 -16.7135 -16.6115 -16.5902 -16.5862
   -15.9078 -15.7283 -15.7128 -12.3947 -11.5340 -11.3924 -11.0798 -10.9011
   -10.8439 -10.6559 -10.6029 -10.2634 -10.2489 -10.1265 -10.1218  -1.8043
     1.1405   1.4691   1.4858   1.6806   1.7429   1.9715   2.1844   2.3583
     2.4354   2.8973   3.2456   3.4913   3.6351   3.6636   4.2228   4.3490
     4.6235

          k = 0.0026 0.1919 0.1918 ( 11178 PWs)   bands (ev):

   -48.8923 -44.7674 -43.2463 -26.8826 -26.8766 -22.9674 -22.9648 -22.9404
   -20.9198 -20.7762 -20.7249 -16.7524 -16.7138 -16.6114 -16.5902 -16.5865
   -15.9062 -15.7249 -15.7153 -12.4113 -11.5105 -11.4862 -11.0190 -10.8733
   -10.7959 -10.7097 -10.5979 -10.2730 -10.2425 -10.1239 -10.1173  -1.7899
     1.0420   1.4452   1.4858   1.6906   1.7929   1.9132   2.2590   2.3519
     2.4904   2.9453   3.0222   3.4746   3.6230   3.7219   4.1891   4.5506
     4.6442

          k = 0.0041 0.1929 0.3826 ( 11176 PWs)   bands (ev):

   -48.8923 -44.7674 -43.2463 -26.8841 -26.8751 -22.9674 -22.9648 -22.9405
   -20.9198 -20.7762 -20.7249 -16.7530 -16.7140 -16.6115 -16.5902 -16.5863
   -15.9091 -15.7288 -15.7157 -12.3660 -11.5061 -11.3877 -11.1132 -10.8893
   -10.8502 -10.7045 -10.6004 -10.2601 -10.2503 -10.1247 -10.1132  -1.8097
     1.2017   1.3933   1.4515   1.6938   1.8220   1.9660   2.1811   2.3217
     2.5186   2.9441   3.2498   3.4874   3.5644   3.7384   4.0693   4.4665
     4.5830

          k = 0.0052 0.3838 0.3836 ( 11190 PWs)   bands (ev):

   -48.8923 -44.7674 -43.2463 -26.8840 -26.8751 -22.9674 -22.9650 -22.9405
   -20.9199 -20.7762 -20.7250 -16.7527 -16.7147 -16.6114 -16.5902 -16.5865
   -15.9120 -15.7297 -15.7198 -12.3126 -11.4440 -11.3622 -11.2231 -10.9371
   -10.7936 -10.7482 -10.6170 -10.2594 -10.2445 -10.1208 -10.1032  -1.8231
     1.2768   1.3751   1.4286   1.7405   1.8547   1.9247   2.1210   2.3595
     2.6119   2.9345   3.3190   3.4469   3.5538   3.8412   3.8816   4.4795
     4.6213

          k = 0.1933 0.1929 0.1933 ( 11200 PWs)   bands (ev):

   -48.8923 -44.7674 -43.2463 -26.8821 -26.8771 -22.9674 -22.9648 -22.9405
   -20.9199 -20.7762 -20.7250 -16.7525 -16.7140 -16.6116 -16.5902 -16.5865
   -15.9073 -15.7274 -15.7162 -12.3885 -11.4828 -11.4689 -11.0113 -10.8802
   -10.8581 -10.7136 -10.6089 -10.2626 -10.2542 -10.1194 -10.1157  -1.7999
     1.0992   1.4018   1.4344   1.7819   1.8275   1.8646   2.3200   2.3795
     2.5468   2.9334   2.9614   3.5468   3.6558   3.6603   4.0603   4.6356
     4.6724

          k = 0.1949 0.1940 0.3841 ( 11163 PWs)   bands (ev):

   -48.8923 -44.7674 -43.2463 -26.8836 -26.8756 -22.9675 -22.9648 -22.9405
   -20.9198 -20.7761 -20.7250 -16.7530 -16.7140 -16.6118 -16.5901 -16.5863
   -15.9100 -15.7310 -15.7169 -12.3415 -11.4767 -11.3730 -11.1079 -10.9079
   -10.8879 -10.7167 -10.6144 -10.2645 -10.2477 -10.1183 -10.1127  -1.8217
     1.2605   1.3465   1.4027   1.7792   1.8656   1.9494   2.3047   2.3621
     2.4365   2.9790   3.1045   3.5467   3.6531   3.6881   3.9424   4.5537
     4.5732

          k = 0.1959 0.3848 0.3851 ( 11170 PWs)   bands (ev):

   -48.8923 -44.7674 -43.2463 -26.8835 -26.8756 -22.9674 -22.9650 -22.9405
   -20.9199 -20.7761 -20.7249 -16.7530 -16.7148 -16.6115 -16.5901 -16.5864
   -15.9136 -15.7309 -15.7214 -12.2750 -11.4135 -11.3556 -11.2256 -10.9679
   -10.8701 -10.7331 -10.6102 -10.2575 -10.2436 -10.1127 -10.1029  -1.8480
     1.2747   1.3324   1.4418   1.8691   1.8871   1.9882   2.1954   2.3664
     2.5473   2.9282   3.1582   3.5562   3.6206   3.7868   3.8029   4.4556
     4.6198

          k = 0.3867 0.3859 0.3867 ( 11215 PWs)   bands (ev):

   -48.8923 -44.7674 -43.2463 -26.8837 -26.8754 -22.9675 -22.9650 -22.9405
   -20.9199 -20.7763 -20.7250 -16.7536 -16.7149 -16.6117 -16.5901 -16.5863
   -15.9169 -15.7336 -15.7232 -12.1988 -11.3630 -11.3353 -11.2888 -11.0052
   -10.9434 -10.7160 -10.6210 -10.2593 -10.2327 -10.1052 -10.1011  -1.8797
     1.2263   1.2803   1.5681   1.8973   1.9743   2.0569   2.3255   2.3623
     2.4609   2.9727   3.0199   3.6640   3.6866   3.6919   3.7849   4.3670
     4.6218

          k = 0.0010 0.1909 0.0010 ( 11172 PWs)   bands (ev):

   -48.8923 -44.7674 -43.2463 -26.8810 -26.8782 -22.9673 -22.9648 -22.9404
   -20.9199 -20.7762 -20.7249 -16.7523 -16.7137 -16.6111 -16.5902 -16.5864
   -15.9051 -15.7222 -15.7147 -12.4330 -11.5384 -11.5045 -11.0367 -10.8192
   -10.7760 -10.6824 -10.6046 -10.2777 -10.2368 -10.1272 -10.1199  -1.7822
     0.9759   1.4997   1.5359   1.6626   1.7494   1.9183   2.2416   2.3252
     2.4586   2.9085   2.9801   3.4635   3.6677   3.7129   4.2599   4.5491
     4.6838

          k = 0.0021 0.3817 0.0021 ( 11172 PWs)   bands (ev):

   -48.8923 -44.7674 -43.2463 -26.8810 -26.8782 -22.9673 -22.9649 -22.9404
   -20.9198 -20.7762 -20.7250 -16.7518 -16.7144 -16.6114 -16.5903 -16.5867
   -15.9066 -15.7229 -15.7195 -12.4077 -11.5262 -11.3939 -11.0730 -10.8801
   -10.8449 -10.7181 -10.5600 -10.2782 -10.2389 -10.1259 -10.1126  -1.7986
     1.1341   1.4636   1.4898   1.7150   1.7705   1.8863   2.1829   2.3662
     2.4645   2.9277   3.2297   3.4720   3.6173   3.6683   4.1610   4.2963
     4.6206

          k =-0.0005 0.1898-0.1897 ( 11178 PWs)   bands (ev):

   -48.8923 -44.7674 -43.2463 -26.8826 -26.8766 -22.9674 -22.9648 -22.9404
   -20.9199 -20.7762 -20.7249 -16.7527 -16.7138 -16.6110 -16.5902 -16.5863
   -15.9074 -15.7243 -15.7150 -12.4000 -11.5259 -11.4879 -11.0653 -10.8705
   -10.7451 -10.6888 -10.6191 -10.2725 -10.2363 -10.1280 -10.1196  -1.7972
     1.0812   1.4580   1.5075   1.7034   1.7615   1.9687   2.0840   2.3735
     2.4498   2.9595   3.0829   3.4451   3.6046   3.7373   4.2912   4.4475
     4.6210

          k = 0.1892 0.0000-0.1892 ( 11178 PWs)   bands (ev):

   -48.8923 -44.7674 -43.2463 -26.8841 -26.8751 -22.9674 -22.9647 -22.9404
   -20.9198 -20.7762 -20.7250 -16.7532 -16.7134 -16.6114 -16.5902 -16.5862
   -15.9067 -15.7265 -15.7130 -12.4067 -11.5167 -11.4773 -11.0201 -10.8809
   -10.8336 -10.6579 -10.6078 -10.2782 -10.2348 -10.1269 -10.1218  -1.7995
     1.0768   1.4529   1.5103   1.6620   1.8157   2.0284   2.1162   2.3491
     2.4267   2.9277   3.0783   3.4512   3.6153   3.7264   4.3115   4.4598
     4.6268

          k =-0.1923-0.0021-0.1923 ( 11178 PWs)   bands (ev):

   -48.8923 -44.7674 -43.2463 -26.8821 -26.8771 -22.9674 -22.9647 -22.9404
   -20.9198 -20.7762 -20.7249 -16.7528 -16.7135 -16.6114 -16.5902 -16.5862
   -15.9070 -15.7265 -15.7128 -12.4042 -11.5245 -11.4834 -11.0647 -10.8172
   -10.7786 -10.6734 -10.6536 -10.2624 -10.2499 -10.1288 -10.1216  -1.7895
     1.0492   1.4663   1.4687   1.6478   1.7939   1.9174   2.2446   2.3556
     2.4798   2.9834   3.0155   3.4837   3.6327   3.7244   4.2094   4.5438
     4.6415

          k =-0.0020 0.1888-0.3805 ( 11176 PWs)   bands (ev):

   -48.8923 -44.7674 -43.2463 -26.8841 -26.8751 -22.9674 -22.9648 -22.9405
   -20.9198 -20.7762 -20.7249 -16.7532 -16.7140 -16.6113 -16.5902 -16.5863
   -15.9099 -15.7285 -15.7155 -12.3585 -11.5156 -11.3890 -11.1330 -10.9253
   -10.7861 -10.6938 -10.6155 -10.2625 -10.2442 -10.1260 -10.1156  -1.8142
     1.2345   1.3932   1.4794   1.7174   1.7905   1.9546   2.0773   2.3574
     2.5028   2.9742   3.2562   3.4615   3.5706   3.7223   4.1266   4.4484
     4.5678

          k = 0.1877-0.0010-0.3800 ( 11176 PWs)   bands (ev):

   -48.8923 -44.7674 -43.2463 -26.8846 -26.8746 -22.9675 -22.9648 -22.9405
   -20.9198 -20.7762 -20.7250 -16.7534 -16.7135 -16.6118 -16.5902 -16.5862
   -15.9089 -15.7304 -15.7139 -12.3707 -11.5027 -11.3794 -11.0786 -10.9330
   -10.8684 -10.6597 -10.6172 -10.2740 -10.2388 -10.1281 -10.1181  -1.8138
     1.2266   1.3829   1.4827   1.6742   1.8697   1.9883   2.0946   2.3638
     2.4633   2.9673   3.2332   3.4710   3.5849   3.7200   4.1336   4.4414
     4.5751

          k =-0.1938-0.0031-0.3831 ( 11176 PWs)   bands (ev):

   -48.8923 -44.7674 -43.2463 -26.8836 -26.8756 -22.9675 -22.9648 -22.9405
   -20.9198 -20.7762 -20.7249 -16.7532 -16.7136 -16.6118 -16.5902 -16.5862
   -15.9090 -15.7305 -15.7138 -12.3691 -11.5077 -11.3861 -11.1021 -10.9040
   -10.8359 -10.6675 -10.6366 -10.2634 -10.2491 -10.1288 -10.1185  -1.8078
     1.2041   1.3939   1.4519   1.6526   1.8570   1.9476   2.1920   2.3544
     2.4804   2.9681   3.2314   3.4829   3.5990   3.7250   4.0918   4.4619
     4.5844

          k = 0.0036 0.3828 0.1928 ( 11176 PWs)   bands (ev):

   -48.8923 -44.7674 -43.2463 -26.8825 -26.8766 -22.9673 -22.9649 -22.9404
   -20.9198 -20.7762 -20.7250 -16.7521 -16.7145 -16.6115 -16.5902 -16.5866
   -15.9083 -15.7255 -15.7199 -12.3749 -11.4977 -11.3899 -11.1106 -10.8856
   -10.8334 -10.7465 -10.5791 -10.2718 -10.2415 -10.1216 -10.1097  -1.8062
     1.1985   1.4034   1.4372   1.7120   1.8329   1.9250   2.1634   2.3693
     2.5177   2.9674   3.2241   3.4545   3.5861   3.7388   4.0267   4.4364
     4.5739

          k = 0.0005 0.3807-0.1887 ( 11176 PWs)   bands (ev):

   -48.8923 -44.7674 -43.2463 -26.8825 -26.8766 -22.9673 -22.9649 -22.9404
   -20.9198 -20.7762 -20.7250 -16.7522 -16.7145 -16.6112 -16.5902 -16.5866
   -15.9091 -15.7252 -15.7197 -12.3674 -11.5043 -11.3974 -11.1244 -10.9098
   -10.8042 -10.7178 -10.5916 -10.2716 -10.2378 -10.1239 -10.1111  -1.8106
     1.2309   1.3938   1.4731   1.7179   1.8181   1.9271   2.0808   2.3705
     2.4955   2.9887   3.2530   3.4418   3.5720   3.7264   4.0860   4.4102
     4.5634

          k =-0.0010 0.3796-0.3794 ( 11190 PWs)   bands (ev):

   -48.8923 -44.7674 -43.2463 -26.8840 -26.8751 -22.9674 -22.9650 -22.9405
   -20.9198 -20.7762 -20.7249 -16.7528 -16.7147 -16.6113 -16.5902 -16.5865
   -15.9125 -15.7295 -15.7195 -12.3072 -11.4503 -11.3731 -11.2163 -10.9593
   -10.7840 -10.7082 -10.6391 -10.2608 -10.2409 -10.1215 -10.1046  -1.8258
     1.2776   1.3670   1.5021   1.7512   1.8213   1.9050   2.0551   2.3848
     2.5843   2.9763   3.3109   3.4280   3.5976   3.7597   3.9575   4.4590
     4.5728

          k = 0.3784 0.0000-0.3784 ( 11190 PWs)   bands (ev):

   -48.8923 -44.7674 -43.2463 -26.8844 -26.8748 -22.9676 -22.9648 -22.9405
   -20.9198 -20.7762 -20.7250 -16.7535 -16.7136 -16.6123 -16.5901 -16.5862
   -15.9109 -15.7342 -15.7152 -12.3319 -11.4367 -11.3448 -11.1371 -10.9735
   -10.8781 -10.6740 -10.6422 -10.2776 -10.2354 -10.1294 -10.1138  -1.8233
     1.2401   1.3815   1.4983   1.7246   1.8857   1.9311   2.1103   2.3940
     2.5398   2.9963   3.2371   3.4483   3.6350   3.7605   3.9629   4.4743
     4.5708

          k =-0.3846-0.0042-0.3846 ( 11190 PWs)   bands (ev):

   -48.8923 -44.7674 -43.2463 -26.8838 -26.8754 -22.9676 -22.9648 -22.9405
   -20.9198 -20.7762 -20.7251 -16.7534 -16.7136 -16.6123 -16.5901 -16.5862
   -15.9109 -15.7343 -15.7152 -12.3307 -11.4414 -11.3485 -11.1531 -10.9429
   -10.8706 -10.6750 -10.6555 -10.2735 -10.2392 -10.1296 -10.1142  -1.8196
     1.2340   1.4078   1.4389   1.6918   1.9002   1.9275   2.1789   2.3800
     2.5440   2.9737   3.2630   3.4746   3.5745   3.8216   3.9232   4.4918
     4.6172

          k =-0.1913 0.1888-0.1913 ( 11200 PWs)   bands (ev):

   -48.8923 -44.7674 -43.2463 -26.8821 -26.8771 -22.9674 -22.9648 -22.9404
   -20.9198 -20.7763 -20.7250 -16.7530 -16.7140 -16.6110 -16.5902 -16.5862
   -15.9097 -15.7261 -15.7157 -12.3643 -11.5060 -11.4864 -11.1076 -10.8327
   -10.7979 -10.6760 -10.6397 -10.2602 -10.2428 -10.1303 -10.1177  -1.8097
     1.1576   1.4427   1.4434   1.7197   1.7851   1.9581   2.0589   2.3665
     2.5254   3.0550   3.1073   3.4356   3.5632   3.7593   4.2188   4.4622
     4.5670

          k = 0.1882-0.1909-0.1903 ( 11200 PWs)   bands (ev):

   -48.8923 -44.7674 -43.2463 -26.8841 -26.8751 -22.9674 -22.9648 -22.9404
   -20.9199 -20.7762 -20.7250 -16.7529 -16.7138 -16.6115 -16.5902 -16.5863
   -15.9082 -15.7267 -15.7161 -12.3773 -11.4948 -11.4726 -11.0474 -10.9100
   -10.7993 -10.6930 -10.6177 -10.2755 -10.2345 -10.1234 -10.1176  -1.8055
     1.1527   1.4058   1.4801   1.7051   1.8103   1.9983   2.0921   2.3235
     2.5180   3.0112   3.1119   3.4301   3.5718   3.7600   4.2422   4.4322
     4.5739

[...]

     total cpu time spent up to now is     1743.2 secs

     total energy              =   -1443.38996445 Ry
     estimated scf accuracy    <       0.00041551 Ry

     iteration # 49     ecut=    60.00 Ry     beta= 0.70
     Davidson diagonalization with overlap
     ethr =  3.05E-07,  avg # of iterations =  1.7

     total cpu time spent up to now is     1748.2 secs

     total energy              =   -1443.38996291 Ry
     estimated scf accuracy    <       0.00027301 Ry

     iteration # 50     ecut=    60.00 Ry     beta= 0.70
     Davidson diagonalization with overlap
     ethr =  2.79E-07,  avg # of iterations =  2.8

     total cpu time spent up to now is     1753.8 secs

     total energy              =   -1443.38998344 Ry
     estimated scf accuracy    <       0.00000092 Ry

     iteration # 51     ecut=    60.00 Ry     beta= 0.70
     Davidson diagonalization with overlap
     ethr =  9.36E-10,  avg # of iterations =  8.0

     total cpu time spent up to now is     1764.9 secs

     total energy              =   -1443.38999159 Ry
     estimated scf accuracy    <       0.00045009 Ry

     iteration # 52     ecut=    60.00 Ry     beta= 0.70
     Davidson diagonalization with overlap
     ethr =  9.36E-10,  avg # of iterations =  7.0

     total cpu time spent up to now is     1774.8 secs

     total energy              =   -1443.38999073 Ry
     estimated scf accuracy    <       0.00010592 Ry

     iteration # 53     ecut=    60.00 Ry     beta= 0.70
     Davidson diagonalization with overlap
     ethr =  9.36E-10,  avg # of iterations =  6.8

     total cpu time spent up to now is     1784.0 secs

     total energy              =   -1443.38999126 Ry
     estimated scf accuracy    <       0.00001161 Ry

     iteration # 54     ecut=    60.00 Ry     beta= 0.70
     Davidson diagonalization with overlap
     ethr =  9.36E-10,  avg # of iterations =  6.5

     total cpu time spent up to now is     1792.1 secs

     total energy              =   -1443.38999181 Ry
     estimated scf accuracy    <       0.00000058 Ry

     iteration # 55     ecut=    60.00 Ry     beta= 0.70
     Davidson diagonalization with overlap
     ethr =  5.88E-10,  avg # of iterations =  1.2

     total cpu time spent up to now is     1796.9 secs

     total energy              =   -1443.38999179 Ry
     estimated scf accuracy    <       0.00000076 Ry

     iteration # 56     ecut=    60.00 Ry     beta= 0.70
     Davidson diagonalization with overlap
     ethr =  5.88E-10,  avg # of iterations =  1.0

     total cpu time spent up to now is     1801.7 secs

     total energy              =   -1443.38999177 Ry
     estimated scf accuracy    <       0.00000071 Ry

     iteration # 57     ecut=    60.00 Ry     beta= 0.70
     Davidson diagonalization with overlap
     ethr =  5.88E-10,  avg # of iterations =  1.0

     total cpu time spent up to now is     1806.5 secs

     total energy              =   -1443.38999175 Ry
     estimated scf accuracy    <       0.00000064 Ry

     iteration # 58     ecut=    60.00 Ry     beta= 0.70
     Davidson diagonalization with overlap
     ethr =  5.88E-10,  avg # of iterations =  1.0

     total cpu time spent up to now is     1811.2 secs

     total energy              =   -1443.38999167 Ry
     estimated scf accuracy    <       0.00000054 Ry

     iteration # 59     ecut=    60.00 Ry     beta= 0.70
     Davidson diagonalization with overlap
     ethr =  5.51E-10,  avg # of iterations =  7.1

     total cpu time spent up to now is     1819.1 secs

     total energy              =   -1443.38999148 Ry
     estimated scf accuracy    <       0.00000250 Ry

     iteration # 60     ecut=    60.00 Ry     beta= 0.70
     Davidson diagonalization with overlap
     ethr =  5.51E-10,  avg # of iterations =  6.5

     total cpu time spent up to now is     1827.5 secs

     total energy              =   -1443.38999175 Ry
     estimated scf accuracy    <       0.00000484 Ry

     iteration # 61     ecut=    60.00 Ry     beta= 0.70
     Davidson diagonalization with overlap
     ethr =  5.51E-10,  avg # of iterations =  4.7

     total cpu time spent up to now is     1833.8 secs

     total energy              =   -1443.38999173 Ry
     estimated scf accuracy    <       0.00000156 Ry

     iteration # 62     ecut=    60.00 Ry     beta= 0.70
     Davidson diagonalization with overlap
     ethr =  5.51E-10,  avg # of iterations =  2.3

     total cpu time spent up to now is     1839.1 secs

     total energy              =   -1443.38999171 Ry
     estimated scf accuracy    <       0.00000094 Ry

     iteration # 63     ecut=    60.00 Ry     beta= 0.70
     Davidson diagonalization with overlap
     ethr =  5.51E-10,  avg # of iterations =  3.4

     total cpu time spent up to now is     1844.9 secs

     total energy              =   -1443.38999172 Ry
     estimated scf accuracy    <       0.00000024 Ry

     iteration # 64     ecut=    60.00 Ry     beta= 0.70
     Davidson diagonalization with overlap
     ethr =  2.43E-10,  avg # of iterations =  4.5

     total cpu time spent up to now is     1851.4 secs

     total energy              =   -1443.38999176 Ry
     estimated scf accuracy    <       0.00000011 Ry

     iteration # 65     ecut=    60.00 Ry     beta= 0.70
     Davidson diagonalization with overlap
     ethr =  1.16E-10,  avg # of iterations =  1.2

     total cpu time spent up to now is     1856.2 secs

     total energy              =   -1443.38999175 Ry
     estimated scf accuracy    <       0.00000010 Ry

     iteration # 66     ecut=    60.00 Ry     beta= 0.70
     Davidson diagonalization with overlap
     ethr =  1.03E-10,  avg # of iterations =  1.1

     total cpu time spent up to now is     1861.0 secs

     total energy              =   -1443.38999175 Ry
     estimated scf accuracy    <       0.00000008 Ry

     iteration # 67     ecut=    60.00 Ry     beta= 0.70
     Davidson diagonalization with overlap
     ethr =  8.11E-11,  avg # of iterations =  1.0

     total cpu time spent up to now is     1865.8 secs

     total energy              =   -1443.38999175 Ry
     estimated scf accuracy    <       0.00000008 Ry

     iteration # 68     ecut=    60.00 Ry     beta= 0.70
     Davidson diagonalization with overlap
     ethr =  8.11E-11,  avg # of iterations =  4.8

     total cpu time spent up to now is     1872.3 secs

     total energy              =   -1443.38999176 Ry
     estimated scf accuracy    <       0.00000004 Ry

     iteration # 69     ecut=    60.00 Ry     beta= 0.70
     Davidson diagonalization with overlap
     ethr =  4.20E-11,  avg # of iterations =  1.5

     total cpu time spent up to now is     1877.2 secs

     total energy              =   -1443.38999176 Ry
     estimated scf accuracy    <       0.00000005 Ry

     iteration # 70     ecut=    60.00 Ry     beta= 0.70
     Davidson diagonalization with overlap
     ethr =  4.20E-11,  avg # of iterations =  1.0

     total cpu time spent up to now is     1882.0 secs

     total energy              =   -1443.38999175 Ry
     estimated scf accuracy    <       0.00000004 Ry

     iteration # 71     ecut=    60.00 Ry     beta= 0.70
     Davidson diagonalization with overlap
     ethr =  4.05E-11,  avg # of iterations =  5.6

     total cpu time spent up to now is     1888.8 secs

     total energy              =   -1443.38999176 Ry
     estimated scf accuracy    <       0.00000003 Ry

     iteration # 72     ecut=    60.00 Ry     beta= 0.70
     Davidson diagonalization with overlap
     ethr =  3.23E-11,  avg # of iterations =  1.0

     total cpu time spent up to now is     1893.6 secs

     total energy              =   -1443.38999176 Ry
     estimated scf accuracy    <       0.00000003 Ry

     iteration # 73     ecut=    60.00 Ry     beta= 0.70
     Davidson diagonalization with overlap
     ethr =  2.77E-11,  avg # of iterations =  1.0

     total cpu time spent up to now is     1898.4 secs

     total energy              =   -1443.38999176 Ry
     estimated scf accuracy    <       0.00000003 Ry

     iteration # 74     ecut=    60.00 Ry     beta= 0.70
     Davidson diagonalization with overlap
     ethr =  2.73E-11,  avg # of iterations =  1.0

     total cpu time spent up to now is     1903.1 secs

     total energy              =   -1443.38999176 Ry
     estimated scf accuracy    <       0.00000003 Ry

     iteration # 75     ecut=    60.00 Ry     beta= 0.70
     Davidson diagonalization with overlap
     ethr =  2.70E-11,  avg # of iterations =  1.0

     total cpu time spent up to now is     1907.9 secs

     total energy              =   -1443.38999176 Ry
     estimated scf accuracy    <       0.00000003 Ry

     iteration # 76     ecut=    60.00 Ry     beta= 0.70
     Davidson diagonalization with overlap
     ethr =  2.60E-11,  avg # of iterations =  1.0

     total cpu time spent up to now is     1912.7 secs

     total energy              =   -1443.38999176 Ry
     estimated scf accuracy    <       0.00000002 Ry

     iteration # 77     ecut=    60.00 Ry     beta= 0.70
     Davidson diagonalization with overlap
     ethr =  2.52E-11,  avg # of iterations =  1.0

     total cpu time spent up to now is     1917.4 secs

     total energy              =   -1443.38999176 Ry
     estimated scf accuracy    <       0.00000003 Ry

     iteration # 78     ecut=    60.00 Ry     beta= 0.70
     Davidson diagonalization with overlap
     ethr =  2.52E-11,  avg # of iterations =  1.0

     total cpu time spent up to now is     1922.2 secs

     total energy              =   -1443.38999176 Ry
     estimated scf accuracy    <       0.00000002 Ry

     iteration # 79     ecut=    60.00 Ry     beta= 0.70
     Davidson diagonalization with overlap
     ethr =  2.30E-11,  avg # of iterations =  1.0

     total cpu time spent up to now is     1927.0 secs

     total energy              =   -1443.38999175 Ry
     estimated scf accuracy    <       0.00000002 Ry

     iteration # 80     ecut=    60.00 Ry     beta= 0.70
     Davidson diagonalization with overlap
     ethr =  2.14E-11,  avg # of iterations =  7.0

     total cpu time spent up to now is     1935.7 secs

     total energy              =   -1443.38999175 Ry
     estimated scf accuracy    <       0.00000048 Ry

     iteration # 81     ecut=    60.00 Ry     beta= 0.70
     Davidson diagonalization with overlap
     ethr =  2.14E-11,  avg # of iterations =  7.1

     total cpu time spent up to now is     1943.9 secs

     total energy              =   -1443.38999176 Ry
     estimated scf accuracy    <       0.00000002 Ry

     iteration # 82     ecut=    60.00 Ry     beta= 0.70
     Davidson diagonalization with overlap
     ethr =  1.96E-11,  avg # of iterations =  1.0

     total cpu time spent up to now is     1948.7 secs

     total energy              =   -1443.38999176 Ry
     estimated scf accuracy    <       0.00000002 Ry

     iteration # 83     ecut=    60.00 Ry     beta= 0.70
     Davidson diagonalization with overlap
     ethr =  1.67E-11,  avg # of iterations =  1.0

     total cpu time spent up to now is     1953.4 secs

     total energy              =   -1443.38999176 Ry
     estimated scf accuracy    <       0.00000001 Ry

     iteration # 84     ecut=    60.00 Ry     beta= 0.70
     Davidson diagonalization with overlap
     ethr =  1.38E-11,  avg # of iterations =  1.0

     total cpu time spent up to now is     1958.2 secs

     total energy              =   -1443.38999176 Ry
     estimated scf accuracy    <       0.00000001 Ry

     iteration # 85     ecut=    60.00 Ry     beta= 0.70
     Davidson diagonalization with overlap
     ethr =  1.22E-11,  avg # of iterations =  1.9

     total cpu time spent up to now is     1963.3 secs

     total energy              =   -1443.38999176 Ry
     estimated scf accuracy    <          6.4E-09 Ry

     iteration # 86     ecut=    60.00 Ry     beta= 0.70
     Davidson diagonalization with overlap
     ethr =  6.55E-12,  avg # of iterations =  5.1

     total cpu time spent up to now is     1970.0 secs

     total energy              =   -1443.38999176 Ry
     estimated scf accuracy    <          7.5E-09 Ry

     iteration # 87     ecut=    60.00 Ry     beta= 0.70
     Davidson diagonalization with overlap
     ethr =  6.55E-12,  avg # of iterations =  1.0

     total cpu time spent up to now is     1974.8 secs

     total energy              =   -1443.38999176 Ry
     estimated scf accuracy    <          7.5E-09 Ry

     iteration # 88     ecut=    60.00 Ry     beta= 0.70
     Davidson diagonalization with overlap
     ethr =  6.55E-12,  avg # of iterations =  1.0

     total cpu time spent up to now is     1979.6 secs

     total energy              =   -1443.38999176 Ry
     estimated scf accuracy    <          7.8E-09 Ry

     iteration # 89     ecut=    60.00 Ry     beta= 0.70
     Davidson diagonalization with overlap
     ethr =  6.55E-12,  avg # of iterations =  1.2

     total cpu time spent up to now is     1984.4 secs

     total energy              =   -1443.38999176 Ry
     estimated scf accuracy    <       0.00000001 Ry

     iteration # 90     ecut=    60.00 Ry     beta= 0.70
     Davidson diagonalization with overlap
     ethr =  6.55E-12,  avg # of iterations =  1.0

     total cpu time spent up to now is     1989.2 secs

     total energy              =   -1443.38999176 Ry
     estimated scf accuracy    <          9.2E-09 Ry

     iteration # 91     ecut=    60.00 Ry     beta= 0.70
     Davidson diagonalization with overlap
     ethr =  6.55E-12,  avg # of iterations =  1.0

     total cpu time spent up to now is     1994.0 secs

     total energy              =   -1443.38999176 Ry
     estimated scf accuracy    <          9.1E-09 Ry

     iteration # 92     ecut=    60.00 Ry     beta= 0.70
     Davidson diagonalization with overlap
     ethr =  6.55E-12,  avg # of iterations =  1.0

     total cpu time spent up to now is     1998.8 secs

     total energy              =   -1443.38999176 Ry
     estimated scf accuracy    <          8.9E-09 Ry

     iteration # 93     ecut=    60.00 Ry     beta= 0.70
     Davidson diagonalization with overlap
     ethr =  6.55E-12,  avg # of iterations =  1.0

     total cpu time spent up to now is     2003.5 secs

     total energy              =   -1443.38999176 Ry
     estimated scf accuracy    <          7.8E-09 Ry

     iteration # 94     ecut=    60.00 Ry     beta= 0.70
     Davidson diagonalization with overlap
     ethr =  6.55E-12,  avg # of iterations =  1.0

     total cpu time spent up to now is     2008.3 secs

     total energy              =   -1443.38999176 Ry
     estimated scf accuracy    <          6.9E-09 Ry

     iteration # 95     ecut=    60.00 Ry     beta= 0.70
     Davidson diagonalization with overlap
     ethr =  6.55E-12,  avg # of iterations =  7.0

     total cpu time spent up to now is     2015.8 secs

     total energy              =   -1443.38999176 Ry
     estimated scf accuracy    <       0.00000001 Ry

     iteration # 96     ecut=    60.00 Ry     beta= 0.70
     Davidson diagonalization with overlap
     ethr =  6.55E-12,  avg # of iterations =  1.0

     total cpu time spent up to now is     2020.6 secs

     total energy              =   -1443.38999176 Ry
     estimated scf accuracy    <       0.00000001 Ry

     iteration # 97     ecut=    60.00 Ry     beta= 0.70
     Davidson diagonalization with overlap
     ethr =  6.55E-12,  avg # of iterations =  2.3

     total cpu time spent up to now is     2025.8 secs

     total energy              =   -1443.38999176 Ry
     estimated scf accuracy    <          4.7E-09 Ry

     iteration # 98     ecut=    60.00 Ry     beta= 0.70
     Davidson diagonalization with overlap
     ethr =  4.75E-12,  avg # of iterations =  3.7

     total cpu time spent up to now is     2031.7 secs

     total energy              =   -1443.38999176 Ry
     estimated scf accuracy    <          2.6E-10 Ry

     iteration # 99     ecut=    60.00 Ry     beta= 0.70
     Davidson diagonalization with overlap
     ethr =  2.62E-13,  avg # of iterations =  6.9

     total cpu time spent up to now is     2039.5 secs

     total energy              =   -1443.38999176 Ry
     estimated scf accuracy    <          5.2E-10 Ry

     iteration #100     ecut=    60.00 Ry     beta= 0.70
     Davidson diagonalization with overlap
     ethr =  2.62E-13,  avg # of iterations =  1.0

     total cpu time spent up to now is     2044.3 secs

     total energy              =   -1443.38999176 Ry
     estimated scf accuracy    <          5.3E-10 Ry

     End of self-consistent calculation

     convergence NOT achieved after 100 iterations: stopping

     Writing config to output data dir ./K4ZrSnO6.save/

     init_run     :     17.25s CPU     17.49s WALL (       1 calls)
     electrons    :   1849.11s CPU   1896.19s WALL (       4 calls)
     update_pot   :     46.65s CPU     46.75s WALL (       3 calls)
     forces       :     26.16s CPU     26.33s WALL (       3 calls)
     stress       :     53.13s CPU     53.43s WALL (       3 calls)

     Called by init_run:
     wfcinit      :      3.78s CPU      3.90s WALL (       1 calls)
     potinit      :      4.40s CPU      4.41s WALL (       1 calls)
     hinit0       :      8.80s CPU      8.86s WALL (       1 calls)

     Called by electrons:
     c_bands      :   1425.72s CPU   1453.95s WALL (     280 calls)
     sum_band     :    219.84s CPU    231.20s WALL (     280 calls)
     v_of_rho     :      7.80s CPU      8.07s WALL (     284 calls)
     newd         :     54.40s CPU     60.50s WALL (     284 calls)
     PAW_pot      :    143.36s CPU    143.98s WALL (     287 calls)
     mix_rho      :      1.47s CPU      1.52s WALL (     280 calls)

     Called by c_bands:
     init_us_2    :     17.74s CPU     18.37s WALL (   22230 calls)
     init_us_2:cp :     17.66s CPU     18.32s WALL (   22230 calls)
     cegterg      :   1369.86s CPU   1397.06s WALL (   10920 calls)

     Called by *egterg:
     cdiaghg      :    448.66s CPU    454.40s WALL (   55077 calls)
     h_psi        :    656.73s CPU    673.56s WALL (   55233 calls)
     s_psi        :     61.15s CPU     61.81s WALL (   55233 calls)
     g_psi        :     10.06s CPU     10.14s WALL (   44274 calls)

     Called by h_psi:
     h_psi:calbec :     73.06s CPU     76.36s WALL (   55233 calls)
     vloc_psi     :    517.63s CPU    530.47s WALL (   55233 calls)
     add_vuspsi   :     62.18s CPU     62.86s WALL (   55233 calls)

     General routines
     calbec       :    100.35s CPU    105.18s WALL (   66855 calls)
     fft          :      4.53s CPU      4.87s WALL (    3764 calls)
     ffts         :      0.47s CPU      0.49s WALL (     564 calls)
     fftw         :    552.74s CPU    566.15s WALL ( 3093548 calls)
     interpolate  :      0.71s CPU      0.76s WALL (     284 calls)
     davcio       :      0.00s CPU      0.01s WALL (      57 calls)

     Parallel routines

     PWSCF        :  33m16.29s CPU  34m 7.56s WALL


   This run was terminated on:   1:53:24   1Dec2025            

=------------------------------------------------------------------------------=
   JOB DONE.
=------------------------------------------------------------------------------=
STOP 255
STOP 255
STOP 255
STOP 255
STOP 255
STOP 255
STOP 255
STOP 255
STOP 255
STOP 255
STOP 255
STOP 255
STOP 255
STOP 255
STOP 255
STOP 255
--------------------------------------------------------------------------
Primary job  terminated normally, but 1 process returned
a non-zero exit code. Per user-direction, the job has been aborted.
--------------------------------------------------------------------------
--------------------------------------------------------------------------
mpirun detected that one or more processes exited with non-zero status, thus causing
the job to be terminated. The first process to do so was:

  Process name: [[32245,1],6]
  Exit code:    255
--------------------------------------------------------------------------
