
     Program PWSCF v.7.1 starts on 30Nov2025 at 14:45:43 

     This program is part of the open-source Quantum ESPRESSO suite
     for quantum simulation of materials; please cite
         "P. Giannozzi et al., J. Phys.:Condens. Matter 21 395502 (2009);
         "P. Giannozzi et al., J. Phys.:Condens. Matter 29 465901 (2017);
         "P. Giannozzi et al., J. Chem. Phys. 152 154105 (2020);
          URL http://www.quantum-espresso.org", 
     in publications or presentations arising from this work. More details at
     http://www.quantum-espresso.org/quote

     Parallel version (MPI & OpenMP), running on      16 processor cores
     Number of MPI processes:                16
     Threads/MPI process:                     1

     MPI processes distributed on     1 nodes
     53065 MiB available memory on the printing compute node when the environment starts

     Waiting for input...
     Reading input from standard input

     Current dimensions of program PWSCF are:
     Max number of different atomic species (ntypx) = 10
     Max number of k-points (npk) =  40000
     Max angular momentum in pseudopotentials (lmaxx) =  4
     Message from routine read_pp_mesh:
     mismatch in mesh size, discarding the one in header
     Message from routine read_pp_mesh:
     mismatch in mesh size, discarding the one in header
     Message from routine read_pp_mesh:
     mismatch in mesh size, discarding the one in header
     Message from routine read_pp_mesh:
     mismatch in mesh size, discarding the one in header
     Message from routine setup:
     using ibrav=0 with symmetry is DISCOURAGED, use correct ibrav instead

     R & G space division:  proc/nbgrp/npool/nimage =      16
     Subspace diagonalization in iterative solution of the eigenvalue problem:
     a serial algorithm will be used


     Parallelization info
     --------------------
     sticks:   dense  smooth     PW     G-vecs:    dense   smooth      PW
     Min         373     186     51                21104     7454    1078
     Max         374     187     52                21108     7457    1081
     Sum        5983    2987    825               337711   119293   17267

     Using Slab Decomposition



     bravais-lattice index     =            0
     lattice parameter (alat)  =      12.6710  a.u.
     unit-cell volume          =    1902.4050 (a.u.)^3
     number of atoms/cell      =           12
     number of atomic types    =            4
     number of electrons       =        98.00
     number of Kohn-Sham states=           49
     kinetic-energy cutoff     =      60.0000  Ry
     charge density cutoff     =     480.0000  Ry
     scf convergence threshold =      1.0E-10
     mixing beta               =       0.7000
     number of iterations used =            8  plain     mixing
     energy convergence thresh.=      1.0E-04
     force convergence thresh. =      1.0E-05
     press convergence thresh. =      5.0E-01
     Exchange-correlation= SLA PW PBX PBC
                           (   1   4   3   4   0   0   0)
     nstep                     =          500


     celldm(1)=  12.671033  celldm(2)=   0.000000  celldm(3)=   0.000000
     celldm(4)=   0.000000  celldm(5)=   0.000000  celldm(6)=   0.000000

     crystal axes: (cart. coord. in units of alat)
               a(1) = (   0.988624   0.106353   0.106353 )  
               a(2) = (   0.106353   0.988624   0.106353 )  
               a(3) = (   0.106353   0.106353   0.988624 )  

     reciprocal axes: (cart. coord. in units 2 pi/alat)
               b(1) = (  1.033095 -0.100342 -0.100342 )  
               b(2) = ( -0.100342  1.033095 -0.100342 )  
               b(3) = ( -0.100342 -0.100342  1.033095 )  


     PseudoPot. # 1 for K  read from file:
     ./K.upf
     MD5 check sum: 9356cfae17991a8ac93a0af773ad5d28
     Pseudo is Projector augmented-wave + core cor, Zval =  9.0
     Generated using ATOMPAW code
     Shape of augmentation charge: SINC**2
     Using radial grid of 2342 points,  5 beta functions with: 
                l(1) =   0
                l(2) =   0
                l(3) =   1
                l(4) =   1
                l(5) =   2
     Q(r) pseudized with 0 coefficients 


     PseudoPot. # 2 for Zr read from file:
     ./Zr.upf
     MD5 check sum: 10be9e9715c592225794718718b87d8f
     Pseudo is Projector augmented-wave + core cor, Zval = 12.0
     Generated using ATOMPAW code
     Shape of augmentation charge: BESSEL
     Using radial grid of 2342 points,  6 beta functions with: 
                l(1) =   0
                l(2) =   0
                l(3) =   1
                l(4) =   1
                l(5) =   2
                l(6) =   2
     Q(r) pseudized with 0 coefficients 


     PseudoPot. # 3 for Sn read from file:
     ./Sn.upf
     MD5 check sum: f8d5c2bd65c7f969f3af92fc3a9f2821
     Pseudo is Projector augmented-wave + core cor, Zval = 14.0
     Generated using ATOMPAW code
     Shape of augmentation charge: BESSEL
     Using radial grid of 2342 points,  6 beta functions with: 
                l(1) =   0
                l(2) =   0
                l(3) =   1
                l(4) =   1
                l(5) =   2
                l(6) =   2
     Q(r) pseudized with 0 coefficients 


     PseudoPot. # 4 for O  read from file:
     ./O.upf
     MD5 check sum: 45fbb1c0d1f8837f1e386a2947d3aa26
     Pseudo is Projector augmented-wave + core cor, Zval =  6.0
     Generated using ATOMPAW code
     Shape of augmentation charge: SINC**2
     Using radial grid of 2342 points,  4 beta functions with: 
                l(1) =   0
                l(2) =   0
                l(3) =   1
                l(4) =   1
     Q(r) pseudized with 0 coefficients 


     atomic species   valence    mass     pseudopotential
        K              9.00    39.09800     K ( 1.00)
        Zr            12.00    91.22400     Zr( 1.00)
        Sn            14.00   118.71000     Sn( 1.00)
        O              6.00    15.99900     O ( 1.00)

      6 Sym. Ops. (no inversion) found



   Cartesian axes

     site n.     atom                  positions (alat units)
         1           K   tau(   1) = (   0.0111137   0.0111137   0.0111137  )
         2           K   tau(   2) = (   0.4195929   0.4195929   0.0702779  )
         3           K   tau(   3) = (   0.4195929   0.0702779   0.4195929  )
         4           K   tau(   4) = (   0.0702779   0.4195929   0.4195929  )
         5           Sn  tau(   5) = (   0.5494500   0.5494500   0.5494500  )
         6           Zr  tau(   6) = (   0.8242546   0.8242546   0.8242546  )
         7           O   tau(   7) = (   0.7166658   0.3785162   0.3785162  )
         8           O   tau(   8) = (   0.3307878  -0.2473892  -0.2473892  )
         9           O   tau(   9) = (   0.3785162   0.7166658   0.3785162  )
        10           O   tau(  10) = (  -0.2473892   0.3307878  -0.2473892  )
        11           O   tau(  11) = (   0.3785162   0.3785162   0.7166658  )
        12           O   tau(  12) = (  -0.2473892  -0.2473892   0.3307878  )

     number of k points=    19
                       cart. coord. in units 2pi/alat
        k(    1) = (   0.0000000   0.0000000   0.0000000), wk =   0.0160000
        k(    2) = (  -0.0200685  -0.0200685   0.2066191), wk =   0.0960000
        k(    3) = (  -0.0401369  -0.0401369   0.4132382), wk =   0.0960000
        k(    4) = (  -0.0401369   0.1865506   0.1865506), wk =   0.0960000
        k(    5) = (  -0.0602054   0.1664822   0.3931697), wk =   0.1920000
        k(    6) = (   0.0200685   0.2467560  -0.4333066), wk =   0.1920000
        k(    7) = (  -0.0000000   0.2266875  -0.2266875), wk =   0.0960000
        k(    8) = (  -0.0802738   0.3731013   0.3731013), wk =   0.0960000
        k(    9) = (   0.0000000   0.4533751  -0.4533751), wk =   0.0960000
        k(   10) = (   0.1664822   0.1664822   0.1664822), wk =   0.0320000
        k(   11) = (   0.1464137   0.1464137   0.3731013), wk =   0.0960000
        k(   12) = (   0.2266875   0.2266875  -0.4533751), wk =   0.0960000
        k(   13) = (   0.2066191   0.2066191  -0.2467560), wk =   0.0960000
        k(   14) = (   0.1263453   0.3530328   0.3530328), wk =   0.0960000
        k(   15) = (   0.2066191   0.4333066  -0.4734435), wk =   0.1920000
        k(   16) = (   0.1865506   0.4132382  -0.2668245), wk =   0.1920000
        k(   17) = (   0.2868929  -0.3931697  -0.3931697), wk =   0.0960000
        k(   18) = (   0.3329643   0.3329643   0.3329643), wk =   0.0320000
        k(   19) = (   0.4132382   0.4132382  -0.4935120), wk =   0.0960000

     Dense  grid:   337711 G-vectors     FFT dimensions: (  90,  90,  90)

     Smooth grid:   119293 G-vectors     FFT dimensions: (  64,  64,  64)

     Estimated max dynamical RAM per process >     109.14 MB

     Estimated total dynamical RAM >       1.71 GB

     Initial potential from superposition of free atoms

     starting charge      97.9154, renormalised to      98.0000
     Starting wfcs are  136 randomized atomic wfcs
     Checking if some PAW data can be deallocated... 

     total cpu time spent up to now is       18.1 secs

     per-process dynamical memory:    79.6 Mb

     Self-consistent Calculation

     iteration #  1     ecut=    60.00 Ry     beta= 0.70
     Davidson diagonalization with overlap
     ethr =  1.00E-02,  avg # of iterations =  1.1

     total cpu time spent up to now is       21.5 secs

     total energy              =   -1448.95881774 Ry
     estimated scf accuracy    <       5.17978495 Ry

     iteration #  2     ecut=    60.00 Ry     beta= 0.70
     Davidson diagonalization with overlap
     ethr =  5.29E-03,  avg # of iterations =  6.3

     total cpu time spent up to now is       27.9 secs

     total energy              =   -1446.12100038 Ry
     estimated scf accuracy    <      31.50495145 Ry

     iteration #  3     ecut=    60.00 Ry     beta= 0.70
     Davidson diagonalization with overlap
     ethr =  5.29E-03,  avg # of iterations =  5.6

     total cpu time spent up to now is       33.7 secs

     total energy              =   -1451.52597613 Ry
     estimated scf accuracy    <       0.94680130 Ry

     iteration #  4     ecut=    60.00 Ry     beta= 0.70
     Davidson diagonalization with overlap
     ethr =  9.66E-04,  avg # of iterations =  5.3

     total cpu time spent up to now is       38.3 secs

     total energy              =   -1451.73671926 Ry
     estimated scf accuracy    <       0.42259093 Ry

     iteration #  5     ecut=    60.00 Ry     beta= 0.70
     Davidson diagonalization with overlap
     ethr =  4.31E-04,  avg # of iterations =  3.3

     total cpu time spent up to now is       42.2 secs

     total energy              =   -1451.71732836 Ry
     estimated scf accuracy    <       0.25325904 Ry

     iteration #  6     ecut=    60.00 Ry     beta= 0.70
     Davidson diagonalization with overlap
     ethr =  2.58E-04,  avg # of iterations =  3.2

     total cpu time spent up to now is       46.3 secs

     total energy              =   -1451.76092973 Ry
     estimated scf accuracy    <       0.02340141 Ry

     iteration #  7     ecut=    60.00 Ry     beta= 0.70
     Davidson diagonalization with overlap
     ethr =  2.39E-05,  avg # of iterations =  4.7

     total cpu time spent up to now is       51.6 secs

     total energy              =   -1451.76776509 Ry
     estimated scf accuracy    <       0.02843850 Ry

     iteration #  8     ecut=    60.00 Ry     beta= 0.70
     Davidson diagonalization with overlap
     ethr =  2.39E-05,  avg # of iterations =  3.4

     total cpu time spent up to now is       55.7 secs

     total energy              =   -1451.77018085 Ry
     estimated scf accuracy    <       0.00189673 Ry

     iteration #  9     ecut=    60.00 Ry     beta= 0.70
     Davidson diagonalization with overlap
     ethr =  1.94E-06,  avg # of iterations =  4.1

     total cpu time spent up to now is       60.4 secs

     total energy              =   -1451.77071300 Ry
     estimated scf accuracy    <       0.00005601 Ry

     iteration # 10     ecut=    60.00 Ry     beta= 0.70
     Davidson diagonalization with overlap
     ethr =  5.72E-08,  avg # of iterations =  3.3

     total cpu time spent up to now is       65.4 secs

     total energy              =   -1451.77070803 Ry
     estimated scf accuracy    <       0.00005855 Ry

     iteration # 11     ecut=    60.00 Ry     beta= 0.70
     Davidson diagonalization with overlap
     ethr =  5.72E-08,  avg # of iterations =  3.1

     total cpu time spent up to now is       69.7 secs

     total energy              =   -1451.77071703 Ry
     estimated scf accuracy    <       0.00000040 Ry

     iteration # 12     ecut=    60.00 Ry     beta= 0.70
     Davidson diagonalization with overlap
     ethr =  4.04E-10,  avg # of iterations =  4.3

     total cpu time spent up to now is       76.1 secs

     total energy              =   -1451.77071728 Ry
     estimated scf accuracy    <       0.00000027 Ry

     iteration # 13     ecut=    60.00 Ry     beta= 0.70
     Davidson diagonalization with overlap
     ethr =  2.72E-10,  avg # of iterations =  3.0

     total cpu time spent up to now is       80.4 secs

     total energy              =   -1451.77071732 Ry
     estimated scf accuracy    <          5.1E-09 Ry

     iteration # 14     ecut=    60.00 Ry     beta= 0.70
     Davidson diagonalization with overlap
     ethr =  5.18E-12,  avg # of iterations =  4.0

     total cpu time spent up to now is       86.3 secs

     total energy              =   -1451.77071733 Ry
     estimated scf accuracy    <          2.7E-09 Ry

     iteration # 15     ecut=    60.00 Ry     beta= 0.70
     Davidson diagonalization with overlap
     ethr =  2.75E-12,  avg # of iterations =  2.0

     total cpu time spent up to now is       90.2 secs

     total energy              =   -1451.77071733 Ry
     estimated scf accuracy    <          1.4E-10 Ry

     iteration # 16     ecut=    60.00 Ry     beta= 0.70
     Davidson diagonalization with overlap
     ethr =  1.41E-13,  avg # of iterations =  3.8

     total cpu time spent up to now is       95.8 secs

     End of self-consistent calculation

          k = 0.0000 0.0000 0.0000 ( 14961 PWs)   bands (ev):

   -44.2441 -26.4908 -25.3275 -25.2482 -25.2482 -22.7938 -22.7002 -22.7002
   -16.7458 -16.7458 -16.6220 -16.3593 -16.3593 -12.5626 -12.2862 -12.2394
   -12.2394 -11.5768 -11.5768 -10.1542  -9.8500  -9.8500  -9.1228  -8.8933
    -8.8933  -8.8061  -8.7565  -8.7565  -8.6687  -8.5187  -8.5187  -1.8542
     0.7488   0.7668   0.7668   1.1553   1.1553   1.6085   1.6085   1.8353
     2.3493   2.3493   2.4400   2.6702   2.7718   2.7718   3.2531   3.2531
     3.4926

          k =-0.0201-0.0201 0.2066 ( 14971 PWs)   bands (ev):

   -44.2441 -26.4908 -25.3269 -25.2488 -25.2482 -22.7937 -22.7002 -22.7002
   -16.7459 -16.7455 -16.6220 -16.3596 -16.3592 -12.5658 -12.2953 -12.2372
   -12.2323 -11.5847 -11.5595 -10.1541  -9.8521  -9.8490  -9.2003  -8.9401
    -8.8817  -8.7871  -8.7464  -8.6987  -8.6322  -8.5282  -8.5173  -1.8302
     0.6986   0.7501   0.7952   1.1263   1.1601   1.5860   1.6014   1.8386
     2.3132   2.3696   2.4653   2.5889   2.7756   2.8560   3.1675   3.2500
     3.4667

          k =-0.0401-0.0401 0.4132 ( 14940 PWs)   bands (ev):

   -44.2441 -26.4907 -25.3259 -25.2498 -25.2482 -22.7937 -22.7004 -22.7002
   -16.7460 -16.7450 -16.6219 -16.3602 -16.3592 -12.5721 -12.3061 -12.2351
   -12.2204 -11.5979 -11.5327 -10.1540  -9.8554  -9.8473  -9.2898  -8.9931
    -8.8741  -8.7420  -8.7400  -8.6683  -8.5859  -8.5211  -8.5130  -1.7897
     0.6244   0.7186   0.8435   1.0761   1.1735   1.5397   1.5951   1.8357
     2.2843   2.4099   2.4779   2.5152   2.7815   2.9219   3.0711   3.2426
     3.4292

          k =-0.0401 0.1866 0.1866 ( 14945 PWs)   bands (ev):

   -44.2441 -26.4907 -25.3267 -25.2487 -25.2485 -22.7938 -22.7002 -22.7002
   -16.7458 -16.7454 -16.6220 -16.3598 -16.3594 -12.5701 -12.3052 -12.2343
   -12.2305 -11.5769 -11.5567 -10.1545  -9.8506  -9.8499  -9.1962  -8.9402
    -8.8842  -8.7619  -8.7562  -8.6885  -8.6359  -8.5461  -8.5218  -1.8153
     0.6604   0.7768   0.7932   1.1344   1.1360   1.5756   1.6126   1.8198
     2.3279   2.3445   2.4759   2.5307   2.8222   2.8486   3.1939   3.2122
     3.4512

          k =-0.0602 0.1665 0.3932 ( 14937 PWs)   bands (ev):

   -44.2441 -26.4907 -25.3258 -25.2496 -25.2485 -22.7937 -22.7003 -22.7002
   -16.7459 -16.7450 -16.6219 -16.3603 -16.3595 -12.5763 -12.3175 -12.2316
   -12.2209 -11.5850 -11.5328 -10.1546  -9.8535  -9.8483  -9.2674  -8.9812
    -8.9043  -8.7308  -8.7051  -8.6658  -8.6067  -8.5477  -8.5182  -1.7791
     0.5908   0.7541   0.8382   1.0852   1.1513   1.5408   1.6039   1.8143
     2.2924   2.3801   2.4493   2.4971   2.8230   2.9240   3.1103   3.2091
     3.4152

          k = 0.0201 0.2468-0.4333 ( 14929 PWs)   bands (ev):

   -44.2441 -26.4907 -25.3255 -25.2500 -25.2484 -22.7937 -22.7004 -22.7002
   -16.7459 -16.7450 -16.6219 -16.3603 -16.3595 -12.5754 -12.3163 -12.2309
   -12.2189 -11.5868 -11.5309 -10.1543  -9.8551  -9.8480  -9.3055  -9.0067
    -8.9138  -8.7456  -8.6799  -8.6473  -8.5840  -8.5284  -8.5147  -1.7719
     0.5885   0.7402   0.8388   1.0662   1.1631   1.5306   1.5890   1.8242
     2.2861   2.3764   2.4671   2.5002   2.8214   2.9610   3.0565   3.2106
     3.4063

          k =-0.0000 0.2267-0.2267 ( 14955 PWs)   bands (ev):

   -44.2441 -26.4907 -25.3262 -25.2495 -25.2483 -22.7937 -22.7003 -22.7002
   -16.7458 -16.7454 -16.6220 -16.3598 -16.3594 -12.5686 -12.3039 -12.2328
   -12.2272 -11.5806 -11.5528 -10.1539  -9.8538  -9.8489  -9.2723  -8.9800
    -8.9051  -8.7793  -8.6998  -8.6557  -8.5996  -8.5233  -8.5137  -1.8041
     0.6538   0.7478   0.8019   1.0992   1.1588   1.5676   1.5806   1.8443
     2.2992   2.3676   2.4889   2.5277   2.8072   2.9244   3.0874   3.2268
     3.4367

          k =-0.0803 0.3731 0.3731 ( 14896 PWs)   bands (ev):

   -44.2441 -26.4907 -25.3253 -25.2496 -25.2489 -22.7937 -22.7003 -22.7003
   -16.7458 -16.7448 -16.6219 -16.3606 -16.3597 -12.5829 -12.3327 -12.2262
   -12.2183 -11.5761 -11.5226 -10.1554  -9.8519  -9.8497  -9.2793  -8.9961
    -8.8803  -8.7694  -8.6752  -8.6276  -8.6265  -8.5541  -8.5173  -1.7541
     0.5295   0.7967   0.8346   1.1038   1.1077   1.5295   1.6059   1.7961
     2.2873   2.3632   2.3719   2.5175   2.8375   2.9921   3.1119   3.1536
     3.3896

          k = 0.0000 0.4534-0.4534 ( 14920 PWs)   bands (ev):

   -44.2441 -26.4907 -25.3251 -25.2500 -25.2488 -22.7937 -22.7004 -22.7002
   -16.7458 -16.7448 -16.6219 -16.3606 -16.3597 -12.5824 -12.3319 -12.2261
   -12.2168 -11.5777 -11.5210 -10.1552  -9.8535  -9.8490  -9.2993  -9.0094
    -8.9155  -8.7433  -8.6488  -8.6425  -8.5985  -8.5520  -8.5157  -1.7495
     0.5288   0.7832   0.8394   1.0705   1.1373   1.5218   1.5977   1.7994
     2.2827   2.3409   2.4092   2.5160   2.8367   3.0352   3.0473   3.1680
     3.3836

          k = 0.1665 0.1665 0.1665 ( 14980 PWs)   bands (ev):

   -44.2441 -26.4907 -25.3269 -25.2485 -25.2485 -22.7938 -22.7002 -22.7002
   -16.7455 -16.7455 -16.6220 -16.3598 -16.3598 -12.5770 -12.3145 -12.2314
   -12.2314 -11.5620 -11.5620 -10.1552  -9.8491  -9.8491  -9.1123  -8.8941
    -8.8941  -8.7639  -8.7639  -8.7286  -8.6670  -8.5542  -8.5542  -1.8059
     0.6191   0.8066   0.8066   1.1323   1.1323   1.6081   1.6081   1.7714
     2.3452   2.3452   2.4549   2.4890   2.8416   2.8416   3.2232   3.2232
     3.4457

          k = 0.1464 0.1464 0.3731 ( 14929 PWs)   bands (ev):

   -44.2441 -26.4907 -25.3262 -25.2492 -25.2485 -22.7938 -22.7003 -22.7002
   -16.7457 -16.7450 -16.6219 -16.3603 -16.3598 -12.5842 -12.3267 -12.2301
   -12.2211 -11.5741 -11.5336 -10.1554  -9.8514  -9.8474  -9.1912  -8.9415
    -8.8798  -8.7510  -8.7328  -8.6788  -8.6299  -8.5692  -8.5553  -1.7708
     0.5440   0.7852   0.8567   1.0970   1.1413   1.5677   1.6024   1.7683
     2.3108   2.3727   2.4150   2.4729   2.8486   2.9182   3.1452   3.2148
     3.4118

          k = 0.2267 0.2267-0.4534 ( 14918 PWs)   bands (ev):

   -44.2441 -26.4907 -25.3255 -25.2499 -25.2485 -22.7937 -22.7004 -22.7002
   -16.7457 -16.7450 -16.6219 -16.3604 -16.3597 -12.5818 -12.3254 -12.2286
   -12.2177 -11.5763 -11.5303 -10.1548  -9.8544  -9.8472  -9.2847  -8.9941
    -8.8759  -8.7479  -8.7391  -8.6277  -8.5926  -8.5415  -8.5231  -1.7587
     0.5404   0.7607   0.8549   1.0740   1.1517   1.5455   1.5751   1.7990
     2.3056   2.3382   2.4508   2.4908   2.8602   2.9621   3.0654   3.1987
     3.3952

          k = 0.2066 0.2066-0.2468 ( 14928 PWs)   bands (ev):

   -44.2441 -26.4907 -25.3258 -25.2496 -25.2485 -22.7937 -22.7003 -22.7002
   -16.7455 -16.7455 -16.6219 -16.3598 -16.3598 -12.5726 -12.3134 -12.2287
   -12.2259 -11.5654 -11.5564 -10.1543  -9.8539  -9.8488  -9.2872  -8.9939
    -8.8789  -8.7636  -8.7495  -8.6158  -8.5989  -8.5341  -8.5057  -1.7868
     0.6135   0.7658   0.8051   1.0968   1.1438   1.5582   1.5785   1.8322
     2.3170   2.3337   2.4794   2.5015   2.8604   2.9316   3.0789   3.1978
     3.4176

          k = 0.1263 0.3530 0.3530 ( 14932 PWs)   bands (ev):

   -44.2441 -26.4907 -25.3258 -25.2491 -25.2489 -22.7938 -22.7003 -22.7003
   -16.7455 -16.7449 -16.6219 -16.3606 -16.3601 -12.5930 -12.3402 -12.2248
   -12.2188 -11.5624 -11.5270 -10.1560  -9.8490  -9.8489  -9.1863  -8.9416
    -8.8843  -8.7754  -8.7085  -8.6401  -8.6376  -8.5903  -8.5651  -1.7440
     0.4742   0.8253   0.8618   1.1032   1.1178   1.5508   1.6050   1.7420
     2.3021   2.3321   2.3770   2.4887   2.8847   2.9746   3.1374   3.1688
     3.3865

          k = 0.2066 0.4333-0.4734 ( 14931 PWs)   bands (ev):

   -44.2441 -26.4907 -25.3253 -25.2498 -25.2488 -22.7938 -22.7004 -22.7003
   -16.7455 -16.7449 -16.6219 -16.3606 -16.3601 -12.5905 -12.3399 -12.2234
   -12.2167 -11.5618 -11.5258 -10.1557  -9.8522  -9.8481  -9.2615  -8.9831
    -8.9050  -8.7430  -8.7017  -8.6272  -8.5957  -8.5787  -8.5308  -1.7360
     0.4757   0.8092   0.8555   1.0815   1.1291   1.5331   1.5846   1.7696
     2.2703   2.3329   2.3996   2.5037   2.9035   3.0199   3.0641   3.1491
     3.3729

          k = 0.1866 0.4132-0.2668 ( 14903 PWs)   bands (ev):

   -44.2441 -26.4907 -25.3253 -25.2500 -25.2487 -22.7937 -22.7004 -22.7002
   -16.7456 -16.7450 -16.6219 -16.3603 -16.3598 -12.5797 -12.3269 -12.2260
   -12.2197 -11.5685 -11.5360 -10.1548  -9.8539  -9.8487  -9.3019  -9.0081
    -8.9152  -8.7334  -8.7068  -8.6125  -8.5927  -8.5475  -8.5076  -1.7581
     0.5504   0.7768   0.8290   1.0725   1.1427   1.5292   1.5872   1.8089
     2.2824   2.3535   2.4213   2.5105   2.8987   2.9596   3.0718   3.1622
     3.3886

          k = 0.2869-0.3932-0.3932 ( 14921 PWs)   bands (ev):

   -44.2441 -26.4907 -25.3251 -25.2498 -25.2489 -22.7938 -22.7004 -22.7003
   -16.7455 -16.7449 -16.6219 -16.3606 -16.3601 -12.5893 -12.3406 -12.2214
   -12.2182 -11.5574 -11.5291 -10.1557  -9.8522  -9.8487  -9.2786  -8.9961
    -8.8793  -8.7677  -8.7049  -8.6243  -8.6002  -8.5578  -8.5173  -1.7356
     0.4795   0.8255   0.8338   1.0959   1.1094   1.5300   1.5845   1.7780
     2.2569   2.3624   2.3651   2.5154   2.9253   3.0105   3.0946   3.1019
     3.3702

          k = 0.3330 0.3330 0.3330 ( 14947 PWs)   bands (ev):

   -44.2441 -26.4907 -25.3259 -25.2489 -25.2489 -22.7939 -22.7003 -22.7003
   -16.7451 -16.7451 -16.6219 -16.3606 -16.3606 -12.6056 -12.3517 -12.2190
   -12.2190 -11.5362 -11.5362 -10.1566  -9.8474  -9.8474  -9.1019  -8.8943
    -8.8943  -8.7818  -8.7818  -8.6642  -8.6076  -8.6076  -8.5979  -1.7183
     0.3942   0.8750   0.8750   1.1089   1.1089   1.5813   1.5813   1.6787
     2.2449   2.3582   2.3582   2.4822   2.9774   2.9774   3.1384   3.1384
     3.3679

          k = 0.4132 0.4132-0.4935 ( 14922 PWs)   bands (ev):

   -44.2441 -26.4907 -25.3255 -25.2494 -25.2489 -22.7939 -22.7003 -22.7003
   -16.7451 -16.7451 -16.6219 -16.3606 -16.3606 -12.6035 -12.3516 -12.2187
   -12.2169 -11.5376 -11.5333 -10.1564  -9.8494  -9.8473  -9.1847  -8.9423
    -8.8818  -8.7705  -8.7449  -8.6349  -8.6109  -8.5993  -8.5604  -1.7131
     0.3952   0.8575   0.8748   1.0987   1.1141   1.5550   1.5669   1.7149
     2.2241   2.3563   2.3746   2.4933   2.9979   3.0117   3.0802   3.1141
     3.3581

     highest occupied level (ev):     3.4926

!    total energy              =   -1451.77071733 Ry
     total all-electron energy =     -1451.770717 Ry
     estimated scf accuracy    <          5.0E-11 Ry

     The total energy is the sum of the following terms:
     one-electron contribution =    -427.04946980 Ry
     hartree contribution      =     274.99383298 Ry
     xc contribution           =    -119.65132638 Ry
     ewald contribution        =    -357.23029808 Ry
     one-center paw contrib.   =    -822.83345604 Ry

     convergence has been achieved in  16 iterations

     Forces acting on atoms (cartesian axes, Ry/au):

     atom    1 type  1   force =    -0.00000018   -0.00000018   -0.00000018
     atom    2 type  1   force =    -0.00000301   -0.00000301   -0.00000330
     atom    3 type  1   force =    -0.00000301   -0.00000330   -0.00000301
     atom    4 type  1   force =    -0.00000330   -0.00000301   -0.00000301
     atom    5 type  3   force =    -0.00000800   -0.00000800   -0.00000800
     atom    6 type  2   force =    -0.00001316   -0.00001316   -0.00001316
     atom    7 type  4   force =     0.00004734    0.00000985    0.00000985
     atom    8 type  4   force =     0.00004596   -0.00004117   -0.00004117
     atom    9 type  4   force =     0.00000985    0.00004734    0.00000985
     atom   10 type  4   force =    -0.00004117    0.00004596   -0.00004117
     atom   11 type  4   force =     0.00000985    0.00000985    0.00004734
     atom   12 type  4   force =    -0.00004117   -0.00004117    0.00004596

     Total force =     0.000157     Total SCF correction =     0.000025
     SCF correction compared to forces is large: reduce conv_thr to get better values


     Computing stress (Cartesian axis) and pressure

          total   stress  (Ry/bohr**3)                   (kbar)     P=       -0.89
  -0.00000607   0.00000239   0.00000239           -0.89        0.35        0.35
   0.00000239  -0.00000607   0.00000239            0.35       -0.89        0.35
   0.00000239   0.00000239  -0.00000607            0.35        0.35       -0.89


     BFGS Geometry Optimization
     Energy error            =      0.0E+00 Ry
     Gradient error          =      4.7E-05 Ry/Bohr
     Cell gradient error     =      8.9E-01 kbar

     number of scf cycles    =   1
     number of bfgs steps    =   0

     enthalpy           new  =   -1451.7707173258 Ry

     new trust radius        =       0.0015151483 bohr
     new conv_thr            =            1.0E-10 Ry

     new unit-cell volume =   1901.53886 a.u.^3 (   281.77899 Ang^3 )
     density =      2.72448 g/cm^3

CELL_PARAMETERS (angstrom)
   6.628024809   0.713448597   0.713448597
   0.713448597   6.628024809   0.713448597
   0.713448597   0.713448597   6.628024809

ATOMIC_POSITIONS (angstrom)
K             0.0745172746        0.0745172746        0.0745172746
K             2.8132306368        2.8132306368        0.4714918809
K             2.8132306368        0.4714918809        2.8132306368
K             0.4714918809        2.8132306368        2.8132306368
Sn            3.6840604527        3.6840604527        3.6840604527
Zr            5.5266240107        5.5266240107        5.5266240107
O             4.8050021037        2.5380931380        2.5380931380
O             2.2174952426       -1.6585362532       -1.6585362532
O             2.5380931380        4.8050021037        2.5380931380
O            -1.6585362532        2.2174952426       -1.6585362532
O             2.5380931380        2.5380931380        4.8050021037
O            -1.6585362532       -1.6585362532        2.2174952425



     Writing config-only to output data dir ./K4SnZrO6.save/
     NEW-OLD atomic charge density approx. for the potential
     extrapolated charge   97.95540, renormalised to   98.00000

     total cpu time spent up to now is      141.3 secs

     per-process dynamical memory:   112.7 Mb

     Self-consistent Calculation

     iteration #  1     ecut=    60.00 Ry     beta= 0.70
     Davidson diagonalization with overlap
     ethr =  1.00E-06,  avg # of iterations =  2.0

     total cpu time spent up to now is      145.8 secs

     total energy              =   -1451.77054433 Ry
     estimated scf accuracy    <       0.00013336 Ry

     iteration #  2     ecut=    60.00 Ry     beta= 0.70
     Davidson diagonalization with overlap
     ethr =  1.36E-07,  avg # of iterations =  4.0

     total cpu time spent up to now is      151.9 secs

     total energy              =   -1451.77068208 Ry
     estimated scf accuracy    <       0.00055568 Ry

     iteration #  3     ecut=    60.00 Ry     beta= 0.70
     Davidson diagonalization with overlap
     ethr =  1.36E-07,  avg # of iterations =  3.5

     total cpu time spent up to now is      156.6 secs

     total energy              =   -1451.77072861 Ry
     estimated scf accuracy    <       0.00005969 Ry

     iteration #  4     ecut=    60.00 Ry     beta= 0.70
     Davidson diagonalization with overlap
     ethr =  6.09E-08,  avg # of iterations =  3.0

     total cpu time spent up to now is      160.6 secs

     total energy              =   -1451.77072752 Ry
     estimated scf accuracy    <       0.00003411 Ry

     iteration #  5     ecut=    60.00 Ry     beta= 0.70
     Davidson diagonalization with overlap
     ethr =  3.48E-08,  avg # of iterations =  1.9

     total cpu time spent up to now is      164.1 secs

     total energy              =   -1451.77072586 Ry
     estimated scf accuracy    <       0.00002205 Ry

     iteration #  6     ecut=    60.00 Ry     beta= 0.70
     Davidson diagonalization with overlap
     ethr =  2.25E-08,  avg # of iterations =  1.0

     total cpu time spent up to now is      167.5 secs

     total energy              =   -1451.77072406 Ry
     estimated scf accuracy    <       0.00001404 Ry

     iteration #  7     ecut=    60.00 Ry     beta= 0.70
     Davidson diagonalization with overlap
     ethr =  1.43E-08,  avg # of iterations =  1.9

     total cpu time spent up to now is      171.0 secs

     total energy              =   -1451.77072324 Ry
     estimated scf accuracy    <       0.00000671 Ry

     iteration #  8     ecut=    60.00 Ry     beta= 0.70
     Davidson diagonalization with overlap
     ethr =  6.85E-09,  avg # of iterations =  2.7

     total cpu time spent up to now is      174.9 secs

     total energy              =   -1451.77072342 Ry
     estimated scf accuracy    <       0.00000220 Ry

     iteration #  9     ecut=    60.00 Ry     beta= 0.70
     Davidson diagonalization with overlap
     ethr =  2.25E-09,  avg # of iterations =  2.3

     total cpu time spent up to now is      178.5 secs

     total energy              =   -1451.77072322 Ry
     estimated scf accuracy    <       0.00000137 Ry

     iteration # 10     ecut=    60.00 Ry     beta= 0.70
     Davidson diagonalization with overlap
     ethr =  1.39E-09,  avg # of iterations =  2.3

     total cpu time spent up to now is      182.3 secs

     total energy              =   -1451.77072312 Ry
     estimated scf accuracy    <       0.00000044 Ry

     iteration # 11     ecut=    60.00 Ry     beta= 0.70
     Davidson diagonalization with overlap
     ethr =  4.49E-10,  avg # of iterations =  3.1

     total cpu time spent up to now is      186.9 secs

     total energy              =   -1451.77072322 Ry
     estimated scf accuracy    <          7.7E-09 Ry

     iteration # 12     ecut=    60.00 Ry     beta= 0.70
     Davidson diagonalization with overlap
     ethr =  7.89E-12,  avg # of iterations =  4.1

     total cpu time spent up to now is      192.8 secs

     total energy              =   -1451.77072323 Ry
     estimated scf accuracy    <          3.8E-09 Ry

     iteration # 13     ecut=    60.00 Ry     beta= 0.70
     Davidson diagonalization with overlap
     ethr =  3.85E-12,  avg # of iterations =  1.1

     total cpu time spent up to now is      196.1 secs

     total energy              =   -1451.77072323 Ry
     estimated scf accuracy    <          3.8E-09 Ry

     iteration # 14     ecut=    60.00 Ry     beta= 0.70
     Davidson diagonalization with overlap
     ethr =  3.85E-12,  avg # of iterations =  3.0

     total cpu time spent up to now is      200.3 secs

     total energy              =   -1451.77072323 Ry
     estimated scf accuracy    <          2.5E-09 Ry

     iteration # 15     ecut=    60.00 Ry     beta= 0.70
     Davidson diagonalization with overlap
     ethr =  2.50E-12,  avg # of iterations =  1.0

     total cpu time spent up to now is      203.6 secs

     total energy              =   -1451.77072323 Ry
     estimated scf accuracy    <          2.4E-09 Ry

     iteration # 16     ecut=    60.00 Ry     beta= 0.70
     Davidson diagonalization with overlap
     ethr =  2.45E-12,  avg # of iterations =  1.0

     total cpu time spent up to now is      207.0 secs

     total energy              =   -1451.77072323 Ry
     estimated scf accuracy    <          2.8E-09 Ry

     iteration # 17     ecut=    60.00 Ry     beta= 0.70
     Davidson diagonalization with overlap
     ethr =  2.45E-12,  avg # of iterations =  1.5

     total cpu time spent up to now is      210.5 secs

     total energy              =   -1451.77072323 Ry
     estimated scf accuracy    <          1.5E-09 Ry

     iteration # 18     ecut=    60.00 Ry     beta= 0.70
     Davidson diagonalization with overlap
     ethr =  1.51E-12,  avg # of iterations =  2.9

     total cpu time spent up to now is      214.6 secs

     total energy              =   -1451.77072323 Ry
     estimated scf accuracy    <          8.2E-10 Ry

     iteration # 19     ecut=    60.00 Ry     beta= 0.70
     Davidson diagonalization with overlap
     ethr =  8.39E-13,  avg # of iterations =  3.0

     total cpu time spent up to now is      218.7 secs

     total energy              =   -1451.77072323 Ry
     estimated scf accuracy    <          4.4E-10 Ry

     iteration # 20     ecut=    60.00 Ry     beta= 0.70
     Davidson diagonalization with overlap
     ethr =  4.50E-13,  avg # of iterations =  3.0

     total cpu time spent up to now is      222.6 secs

     total energy              =   -1451.77072323 Ry
     estimated scf accuracy    <          1.6E-10 Ry

     iteration # 21     ecut=    60.00 Ry     beta= 0.70
     Davidson diagonalization with overlap
     ethr =  1.67E-13,  avg # of iterations =  3.0

     total cpu time spent up to now is      226.6 secs

     End of self-consistent calculation

          k = 0.0000 0.0000 0.0000 ( 14961 PWs)   bands (ev):

   -44.2386 -26.4854 -25.3238 -25.2443 -25.2443 -22.7890 -22.6959 -22.6959
   -16.7425 -16.7425 -16.6180 -16.3551 -16.3551 -12.5603 -12.2837 -12.2364
   -12.2364 -11.5736 -11.5736 -10.1489  -9.8447  -9.8447  -9.1192  -8.8895
    -8.8895  -8.8025  -8.7526  -8.7526  -8.6647  -8.5147  -8.5147  -1.8512
     0.7508   0.7688   0.7688   1.1579   1.1579   1.6110   1.6110   1.8390
     2.3524   2.3524   2.4428   2.6728   2.7746   2.7746   3.2561   3.2561
     3.4955

          k =-0.0201-0.0201 0.2067 ( 14971 PWs)   bands (ev):

   -44.2386 -26.4854 -25.3232 -25.2449 -25.2443 -22.7890 -22.6960 -22.6959
   -16.7426 -16.7422 -16.6180 -16.3555 -16.3551 -12.5635 -12.2928 -12.2341
   -12.2292 -11.5815 -11.5563 -10.1488  -9.8467  -9.8436  -9.1969  -8.9364
    -8.8779  -8.7834  -8.7425  -8.6947  -8.6281  -8.5242  -8.5133  -1.8271
     0.7006   0.7521   0.7973   1.1289   1.1627   1.5885   1.6039   1.8424
     2.3162   2.3727   2.4681   2.5915   2.7784   2.8588   3.1704   3.2530
     3.4696

          k =-0.0402-0.0402 0.4133 ( 14940 PWs)   bands (ev):

   -44.2386 -26.4853 -25.3222 -25.2459 -25.2443 -22.7890 -22.6961 -22.6959
   -16.7427 -16.7417 -16.6180 -16.3561 -16.3551 -12.5698 -12.3036 -12.2320
   -12.2173 -11.5947 -11.5295 -10.1487  -9.8500  -9.8419  -9.2866  -8.9895
    -8.8703  -8.7380  -8.7363  -8.6643  -8.5818  -8.5169  -8.5090  -1.7866
     0.6264   0.7205   0.8456   1.0786   1.1761   1.5423   1.5976   1.8394
     2.2873   2.4127   2.4807   2.5180   2.7843   2.9247   3.0741   3.2456
     3.4321

          k =-0.0402 0.1866 0.1866 ( 14945 PWs)   bands (ev):

   -44.2386 -26.4853 -25.3230 -25.2448 -25.2446 -22.7890 -22.6960 -22.6959
   -16.7425 -16.7421 -16.6180 -16.3556 -16.3553 -12.5678 -12.3026 -12.2312
   -12.2275 -11.5737 -11.5535 -10.1492  -9.8452  -9.8446  -9.1928  -8.9365
    -8.8804  -8.7582  -8.7523  -8.6844  -8.6318  -8.5422  -8.5178  -1.8122
     0.6624   0.7789   0.7953   1.1369   1.1385   1.5782   1.6152   1.8235
     2.3309   2.3475   2.4787   2.5332   2.8250   2.8514   3.1969   3.2152
     3.4541

          k =-0.0602 0.1665 0.3932 ( 14937 PWs)   bands (ev):

   -44.2386 -26.4853 -25.3221 -25.2457 -25.2446 -22.7890 -22.6961 -22.6960
   -16.7426 -16.7417 -16.6180 -16.3562 -16.3553 -12.5741 -12.3149 -12.2286
   -12.2178 -11.5818 -11.5296 -10.1493  -9.8481  -9.8429  -9.2641  -8.9776
    -8.9006  -8.7270  -8.7011  -8.6618  -8.6026  -8.5437  -8.5142  -1.7760
     0.5927   0.7561   0.8403   1.0877   1.1538   1.5434   1.6064   1.8180
     2.2954   2.3829   2.4520   2.5000   2.8258   2.9268   3.1133   3.2121
     3.4182

          k = 0.0201 0.2468-0.4334 ( 14929 PWs)   bands (ev):

   -44.2386 -26.4853 -25.3217 -25.2461 -25.2445 -22.7890 -22.6961 -22.6959
   -16.7426 -16.7417 -16.6180 -16.3562 -16.3553 -12.5732 -12.3137 -12.2278
   -12.2158 -11.5837 -11.5276 -10.1490  -9.8497  -9.8426  -9.3024  -9.0031
    -8.9101  -8.7419  -8.6758  -8.6433  -8.5799  -8.5243  -8.5106  -1.7688
     0.5904   0.7422   0.8409   1.0688   1.1657   1.5332   1.5915   1.8279
     2.2891   2.3791   2.4699   2.5030   2.8242   2.9639   3.0594   3.2136
     3.4092

          k =-0.0000 0.2267-0.2267 ( 14955 PWs)   bands (ev):

   -44.2386 -26.4853 -25.3224 -25.2456 -25.2444 -22.7890 -22.6961 -22.6959
   -16.7425 -16.7421 -16.6180 -16.3557 -16.3553 -12.5663 -12.3014 -12.2297
   -12.2242 -11.5774 -11.5496 -10.1486  -9.8484  -9.8435  -9.2691  -8.9764
    -8.9014  -8.7756  -8.6958  -8.6516  -8.5955  -8.5193  -8.5096  -1.8009
     0.6559   0.7498   0.8039   1.1017   1.1614   1.5701   1.5831   1.8480
     2.3021   2.3705   2.4917   2.5303   2.8100   2.9272   3.0904   3.2298
     3.4396

          k =-0.0803 0.3731 0.3731 ( 14896 PWs)   bands (ev):

   -44.2386 -26.4853 -25.3216 -25.2457 -25.2450 -22.7890 -22.6961 -22.6960
   -16.7425 -16.7415 -16.6180 -16.3565 -16.3556 -12.5808 -12.3301 -12.2232
   -12.2152 -11.5729 -11.5193 -10.1501  -9.8465  -9.8443  -9.2760  -8.9926
    -8.8765  -8.7655  -8.6713  -8.6236  -8.6225  -8.5499  -8.5132  -1.7509
     0.5314   0.7988   0.8367   1.1064   1.1101   1.5322   1.6084   1.7998
     2.2901   2.3658   2.3747   2.5203   2.8402   2.9950   3.1149   3.1565
     3.3926

          k = 0.0000 0.4535-0.4535 ( 14920 PWs)   bands (ev):

   -44.2386 -26.4853 -25.3214 -25.2461 -25.2449 -22.7890 -22.6961 -22.6960
   -16.7425 -16.7415 -16.6180 -16.3565 -16.3556 -12.5803 -12.3293 -12.2230
   -12.2137 -11.5745 -11.5177 -10.1499  -9.8481  -9.8436  -9.2961  -9.0058
    -8.9118  -8.7395  -8.6448  -8.6386  -8.5944  -8.5479  -8.5116  -1.7464
     0.5307   0.7852   0.8415   1.0730   1.1399   1.5245   1.6002   1.8031
     2.2855   2.3435   2.4120   2.5188   2.8395   3.0382   3.0502   3.1709
     3.3865

          k = 0.1665 0.1665 0.1665 ( 14980 PWs)   bands (ev):

   -44.2386 -26.4853 -25.3232 -25.2446 -25.2446 -22.7891 -22.6960 -22.6960
   -16.7422 -16.7422 -16.6180 -16.3557 -16.3557 -12.5747 -12.3119 -12.2283
   -12.2283 -11.5588 -11.5588 -10.1499  -9.8437  -9.8437  -9.1086  -8.8903
    -8.8903  -8.7600  -8.7600  -8.7249  -8.6630  -8.5502  -8.5502  -1.8029
     0.6211   0.8087   0.8087   1.1349   1.1349   1.6107   1.6107   1.7751
     2.3483   2.3483   2.4576   2.4916   2.8444   2.8444   3.2262   3.2262
     3.4487

          k = 0.1464 0.1464 0.3731 ( 14929 PWs)   bands (ev):

   -44.2386 -26.4853 -25.3224 -25.2453 -25.2446 -22.7891 -22.6960 -22.6960
   -16.7424 -16.7417 -16.6180 -16.3562 -16.3556 -12.5821 -12.3241 -12.2270
   -12.2180 -11.5709 -11.5304 -10.1501  -9.8460  -9.8420  -9.1877  -8.9379
    -8.8759  -8.7471  -8.7289  -8.6750  -8.6258  -8.5653  -8.5513  -1.7677
     0.5459   0.7873   0.8588   1.0996   1.1438   1.5703   1.6051   1.7720
     2.3138   2.3753   2.4178   2.4757   2.8514   2.9211   3.1482   3.2178
     3.4148

          k = 0.2267 0.2267-0.4535 ( 14918 PWs)   bands (ev):

   -44.2386 -26.4853 -25.3217 -25.2460 -25.2446 -22.7890 -22.6961 -22.6960
   -16.7424 -16.7417 -16.6180 -16.3562 -16.3556 -12.5797 -12.3227 -12.2255
   -12.2146 -11.5731 -11.5270 -10.1495  -9.8490  -9.8418  -9.2815  -8.9905
    -8.8721  -8.7440  -8.7353  -8.6237  -8.5886  -8.5375  -8.5190  -1.7555
     0.5424   0.7627   0.8570   1.0765   1.1543   1.5480   1.5777   1.8027
     2.3086   2.3408   2.4537   2.4935   2.8630   2.9650   3.0684   3.2017
     3.3981

          k = 0.2067 0.2067-0.2468 ( 14928 PWs)   bands (ev):

   -44.2386 -26.4853 -25.3221 -25.2457 -25.2446 -22.7890 -22.6961 -22.6959
   -16.7422 -16.7422 -16.6180 -16.3557 -16.3556 -12.5704 -12.3109 -12.2256
   -12.2229 -11.5622 -11.5532 -10.1490  -9.8485  -9.8434  -9.2839  -8.9903
    -8.8751  -8.7598  -8.7456  -8.6116  -8.5949  -8.5301  -8.5016  -1.7837
     0.6154   0.7678   0.8072   1.0993   1.1463   1.5608   1.5811   1.8359
     2.3199   2.3365   2.4821   2.5043   2.8632   2.9344   3.0818   3.2008
     3.4205

          k = 0.1263 0.3531 0.3531 ( 14932 PWs)   bands (ev):

   -44.2386 -26.4853 -25.3221 -25.2452 -25.2450 -22.7891 -22.6960 -22.6960
   -16.7422 -16.7416 -16.6180 -16.3565 -16.3559 -12.5909 -12.3375 -12.2217
   -12.2157 -11.5593 -11.5237 -10.1507  -9.8436  -9.8435  -9.1828  -8.9379
    -8.8805  -8.7716  -8.7045  -8.6361  -8.6338  -8.5863  -8.5612  -1.7408
     0.4760   0.8274   0.8639   1.1058   1.1203   1.5535   1.6076   1.7456
     2.3046   2.3349   2.3799   2.4915   2.8875   2.9775   3.1404   3.1718
     3.3895

          k = 0.2067 0.4334-0.4736 ( 14931 PWs)   bands (ev):

   -44.2386 -26.4853 -25.3215 -25.2459 -25.2449 -22.7890 -22.6961 -22.6960
   -16.7422 -16.7416 -16.6180 -16.3565 -16.3559 -12.5884 -12.3372 -12.2203
   -12.2137 -11.5586 -11.5226 -10.1504  -9.8468  -9.8427  -9.2582  -8.9795
    -8.9013  -8.7391  -8.6977  -8.6232  -8.5917  -8.5748  -8.5267  -1.7328
     0.4776   0.8113   0.8576   1.0840   1.1316   1.5358   1.5872   1.7733
     2.2728   2.3358   2.4024   2.5064   2.9063   3.0228   3.0671   3.1520
     3.3759

          k = 0.1866 0.4133-0.2669 ( 14903 PWs)   bands (ev):

   -44.2386 -26.4853 -25.3215 -25.2461 -25.2448 -22.7890 -22.6961 -22.6960
   -16.7423 -16.7417 -16.6180 -16.3562 -16.3556 -12.5776 -12.3242 -12.2230
   -12.2166 -11.5653 -11.5327 -10.1495  -9.8486  -9.8434  -9.2987  -9.0046
    -8.9115  -8.7296  -8.7028  -8.6084  -8.5886  -8.5434  -8.5035  -1.7549
     0.5523   0.7789   0.8310   1.0750   1.1452   1.5318   1.5897   1.8126
     2.2851   2.3562   2.4241   2.5133   2.9016   2.9625   3.0747   3.1652
     3.3915

          k = 0.2870-0.3932-0.3932 ( 14921 PWs)   bands (ev):

   -44.2386 -26.4853 -25.3214 -25.2459 -25.2450 -22.7890 -22.6961 -22.6960
   -16.7422 -16.7416 -16.6180 -16.3565 -16.3559 -12.5872 -12.3379 -12.2184
   -12.2151 -11.5542 -11.5258 -10.1504  -9.8469  -9.8433  -9.2754  -8.9925
    -8.8755  -8.7638  -8.7010  -8.6204  -8.5962  -8.5536  -8.5132  -1.7324
     0.4814   0.8276   0.8359   1.0983   1.1120   1.5327   1.5871   1.7816
     2.2594   2.3652   2.3680   2.5182   2.9281   3.0134   3.0976   3.1049
     3.3731

          k = 0.3330 0.3330 0.3330 ( 14947 PWs)   bands (ev):

   -44.2386 -26.4853 -25.3221 -25.2450 -25.2450 -22.7892 -22.6960 -22.6960
   -16.7418 -16.7418 -16.6180 -16.3565 -16.3565 -12.6035 -12.3490 -12.2159
   -12.2159 -11.5330 -11.5330 -10.1513  -9.8420  -9.8420  -9.0983  -8.8905
    -8.8905  -8.7780  -8.7780  -8.6602  -8.6037  -8.6037  -8.5941  -1.7151
     0.3960   0.8771   0.8771   1.1114   1.1114   1.5839   1.5839   1.6823
     2.2473   2.3611   2.3611   2.4849   2.9803   2.9803   3.1415   3.1415
     3.3708

          k = 0.4133 0.4133-0.4936 ( 14922 PWs)   bands (ev):

   -44.2386 -26.4853 -25.3217 -25.2455 -25.2450 -22.7891 -22.6961 -22.6960
   -16.7418 -16.7417 -16.6180 -16.3565 -16.3565 -12.6015 -12.3489 -12.2156
   -12.2138 -11.5343 -11.5301 -10.1511  -9.8440  -9.8419  -9.1813  -8.9386
    -8.8780  -8.7666  -8.7409  -8.6308  -8.6069  -8.5954  -8.5565  -1.7098
     0.3970   0.8596   0.8769   1.1012   1.1166   1.5577   1.5696   1.7185
     2.2265   2.3592   2.3775   2.4961   3.0008   3.0146   3.0833   3.1171
     3.3610

     highest occupied level (ev):     3.4955

!    total energy              =   -1451.77072323 Ry
     total all-electron energy =     -1451.770723 Ry
     estimated scf accuracy    <          4.3E-12 Ry

     The total energy is the sum of the following terms:
     one-electron contribution =    -426.97162778 Ry
     hartree contribution      =     274.96936367 Ry
     xc contribution           =    -119.65384580 Ry
     ewald contribution        =    -357.28092486 Ry
     one-center paw contrib.   =    -822.83368845 Ry

     convergence has been achieved in  21 iterations

     Forces acting on atoms (cartesian axes, Ry/au):

     atom    1 type  1   force =     0.00000137    0.00000137    0.00000137
     atom    2 type  1   force =    -0.00005483   -0.00005483    0.00005019
     atom    3 type  1   force =    -0.00005483    0.00005019   -0.00005483
     atom    4 type  1   force =     0.00005019   -0.00005483   -0.00005483
     atom    5 type  3   force =     0.00011695    0.00011695    0.00011695
     atom    6 type  2   force =     0.00033814    0.00033814    0.00033814
     atom    7 type  4   force =     0.00022243   -0.00013434   -0.00013434
     atom    8 type  4   force =    -0.00036750    0.00000839    0.00000839
     atom    9 type  4   force =    -0.00013434    0.00022243   -0.00013434
     atom   10 type  4   force =     0.00000839   -0.00036750    0.00000839
     atom   11 type  4   force =    -0.00013434   -0.00013434    0.00022243
     atom   12 type  4   force =     0.00000839    0.00000839   -0.00036750

     Total force =     0.001035     Total SCF correction =     0.000007


     Computing stress (Cartesian axis) and pressure

          total   stress  (Ry/bohr**3)                   (kbar)     P=       -0.61
  -0.00000418   0.00000197   0.00000197           -0.61        0.29        0.29
   0.00000197  -0.00000418   0.00000197            0.29       -0.61        0.29
   0.00000197   0.00000197  -0.00000418            0.29        0.29       -0.61

     Energy error            =      5.9E-06 Ry
     Gradient error          =      3.7E-04 Ry/Bohr
     Cell gradient error     =      6.1E-01 kbar

     number of scf cycles    =   2
     number of bfgs steps    =   1

     enthalpy           old  =   -1451.7707173258 Ry
     enthalpy           new  =   -1451.7707232280 Ry

     CASE: enthalpy          _new < enthalpy          _old

     new trust radius        =       0.0022726810 bohr
     new conv_thr            =            1.0E-12 Ry

     new unit-cell volume =   1900.27386 a.u.^3 (   281.59153 Ang^3 )
     density =      2.72629 g/cm^3

CELL_PARAMETERS (angstrom)
   6.626692816   0.714000551   0.714000551
   0.714000551   6.626692816   0.714000551
   0.714000551   0.714000551   6.626692816

ATOMIC_POSITIONS (angstrom)
K             0.0745159278        0.0745159278        0.0745159278
K             2.8128901659        2.8128901659        0.4719607945
K             2.8128901659        0.4719607945        2.8128901659
K             0.4719607945        2.8128901659        2.8128901659
Sn            3.6840241349        3.6840241349        3.6840241349
Zr            5.5266676888        5.5266676888        5.5266676888
O             4.8045789899        2.5381627339        2.5381627339
O             2.2164763589       -1.6581239695       -1.6581239695
O             2.5381627339        4.8045789899        2.5381627339
O            -1.6581239695        2.2164763589       -1.6581239695
O             2.5381627339        2.5381627339        4.8045789899
O            -1.6581239695       -1.6581239695        2.2164763588



     Writing config-only to output data dir ./K4SnZrO6.save/
     NEW-OLD atomic charge density approx. for the potential
     extrapolated charge   97.93482, renormalised to   98.00000

     total cpu time spent up to now is      272.0 secs

     per-process dynamical memory:   114.2 Mb

     Self-consistent Calculation

     iteration #  1     ecut=    60.00 Ry     beta= 0.70
     Davidson diagonalization with overlap
     ethr =  1.00E-06,  avg # of iterations =  2.4

     total cpu time spent up to now is      276.5 secs

     total energy              =   -1451.77035996 Ry
     estimated scf accuracy    <       0.00027088 Ry

     iteration #  2     ecut=    60.00 Ry     beta= 0.70
     Davidson diagonalization with overlap
     ethr =  2.76E-07,  avg # of iterations =  4.0

     total cpu time spent up to now is      282.7 secs

     total energy              =   -1451.77064734 Ry
     estimated scf accuracy    <       0.00116328 Ry

     iteration #  3     ecut=    60.00 Ry     beta= 0.70
     Davidson diagonalization with overlap
     ethr =  2.76E-07,  avg # of iterations =  3.5

     total cpu time spent up to now is      287.5 secs

     total energy              =   -1451.77074304 Ry
     estimated scf accuracy    <       0.00012706 Ry

     iteration #  4     ecut=    60.00 Ry     beta= 0.70
     Davidson diagonalization with overlap
     ethr =  1.30E-07,  avg # of iterations =  3.0

     total cpu time spent up to now is      291.4 secs

     total energy              =   -1451.77073952 Ry
     estimated scf accuracy    <       0.00007314 Ry

     iteration #  5     ecut=    60.00 Ry     beta= 0.70
     Davidson diagonalization with overlap
     ethr =  7.46E-08,  avg # of iterations =  2.1

     total cpu time spent up to now is      295.0 secs

     total energy              =   -1451.77073600 Ry
     estimated scf accuracy    <       0.00004568 Ry

     iteration #  6     ecut=    60.00 Ry     beta= 0.70
     Davidson diagonalization with overlap
     ethr =  4.66E-08,  avg # of iterations =  1.0

     total cpu time spent up to now is      298.3 secs

     total energy              =   -1451.77073226 Ry
     estimated scf accuracy    <       0.00002826 Ry

     iteration #  7     ecut=    60.00 Ry     beta= 0.70
     Davidson diagonalization with overlap
     ethr =  2.88E-08,  avg # of iterations =  2.3

     total cpu time spent up to now is      302.0 secs

     total energy              =   -1451.77073137 Ry
     estimated scf accuracy    <       0.00001244 Ry

     iteration #  8     ecut=    60.00 Ry     beta= 0.70
     Davidson diagonalization with overlap
     ethr =  1.27E-08,  avg # of iterations =  2.2

     total cpu time spent up to now is      305.6 secs

     total energy              =   -1451.77073084 Ry
     estimated scf accuracy    <       0.00000563 Ry

     iteration #  9     ecut=    60.00 Ry     beta= 0.70
     Davidson diagonalization with overlap
     ethr =  5.75E-09,  avg # of iterations =  2.9

     total cpu time spent up to now is      309.6 secs

     total energy              =   -1451.77073117 Ry
     estimated scf accuracy    <       0.00000164 Ry

     iteration # 10     ecut=    60.00 Ry     beta= 0.70
     Davidson diagonalization with overlap
     ethr =  1.68E-09,  avg # of iterations =  1.7

     total cpu time spent up to now is      313.1 secs

     total energy              =   -1451.77073066 Ry
     estimated scf accuracy    <       0.00000130 Ry

     iteration # 11     ecut=    60.00 Ry     beta= 0.70
     Davidson diagonalization with overlap
     ethr =  1.32E-09,  avg # of iterations =  3.0

     total cpu time spent up to now is      317.7 secs

     total energy              =   -1451.77073094 Ry
     estimated scf accuracy    <          8.5E-09 Ry

     iteration # 12     ecut=    60.00 Ry     beta= 0.70
     Davidson diagonalization with overlap
     ethr =  8.69E-12,  avg # of iterations =  4.0

     total cpu time spent up to now is      323.8 secs

     total energy              =   -1451.77073096 Ry
     estimated scf accuracy    <       0.00000003 Ry

     iteration # 13     ecut=    60.00 Ry     beta= 0.70
     Davidson diagonalization with overlap
     ethr =  8.69E-12,  avg # of iterations =  3.0

     total cpu time spent up to now is      327.8 secs

     total energy              =   -1451.77073095 Ry
     estimated scf accuracy    <       0.00000002 Ry

     iteration # 14     ecut=    60.00 Ry     beta= 0.70
     Davidson diagonalization with overlap
     ethr =  8.69E-12,  avg # of iterations =  4.0

     total cpu time spent up to now is      333.3 secs

     total energy              =   -1451.77073095 Ry
     estimated scf accuracy    <       0.00000003 Ry

     iteration # 15     ecut=    60.00 Ry     beta= 0.70
     Davidson diagonalization with overlap
     ethr =  8.69E-12,  avg # of iterations =  3.0

     total cpu time spent up to now is      337.7 secs

     total energy              =   -1451.77073096 Ry
     estimated scf accuracy    <          1.6E-09 Ry

     iteration # 16     ecut=    60.00 Ry     beta= 0.70
     Davidson diagonalization with overlap
     ethr =  1.67E-12,  avg # of iterations =  1.0

     total cpu time spent up to now is      341.0 secs

     total energy              =   -1451.77073096 Ry
     estimated scf accuracy    <          1.0E-09 Ry

     iteration # 17     ecut=    60.00 Ry     beta= 0.70
     Davidson diagonalization with overlap
     ethr =  1.02E-12,  avg # of iterations =  3.0

     total cpu time spent up to now is      345.3 secs

     total energy              =   -1451.77073096 Ry
     estimated scf accuracy    <          9.6E-11 Ry

     iteration # 18     ecut=    60.00 Ry     beta= 0.70
     Davidson diagonalization with overlap
     ethr =  1.00E-13,  avg # of iterations =  2.2

     total cpu time spent up to now is      349.2 secs

     total energy              =   -1451.77073096 Ry
     estimated scf accuracy    <          4.4E-11 Ry

     iteration # 19     ecut=    60.00 Ry     beta= 0.70
     Davidson diagonalization with overlap
     ethr =  1.00E-13,  avg # of iterations =  3.0

     total cpu time spent up to now is      353.3 secs

     total energy              =   -1451.77073096 Ry
     estimated scf accuracy    <          2.3E-12 Ry

     iteration # 20     ecut=    60.00 Ry     beta= 0.70
     Davidson diagonalization with overlap
     ethr =  1.00E-13,  avg # of iterations =  1.0

     total cpu time spent up to now is      356.6 secs

     End of self-consistent calculation

          k = 0.0000 0.0000 0.0000 ( 14961 PWs)   bands (ev):

   -44.2340 -26.4767 -25.3182 -25.2384 -25.2384 -22.7847 -22.6915 -22.6915
   -16.7376 -16.7376 -16.6125 -16.3495 -16.3495 -12.5568 -12.2799 -12.2327
   -12.2327 -11.5689 -11.5689 -10.1404  -9.8360  -9.8360  -9.1139  -8.8837
    -8.8837  -8.7970  -8.7468  -8.7468  -8.6587  -8.5088  -8.5088  -1.8468
     0.7546   0.7728   0.7728   1.1621   1.1621   1.6150   1.6150   1.8436
     2.3570   2.3570   2.4471   2.6770   2.7789   2.7789   3.2607   3.2607
     3.5001

          k =-0.0201-0.0201 0.2067 ( 14971 PWs)   bands (ev):

   -44.2340 -26.4767 -25.3175 -25.2390 -25.2384 -22.7847 -22.6916 -22.6915
   -16.7377 -16.7374 -16.6125 -16.3498 -16.3495 -12.5600 -12.2890 -12.2304
   -12.2256 -11.5768 -11.5515 -10.1403  -9.8380  -9.8349  -9.1918  -8.9308
    -8.8721  -8.7779  -8.7365  -8.6886  -8.6219  -8.5182  -8.5073  -1.8226
     0.7043   0.7560   0.8013   1.1330   1.1669   1.5925   1.6079   1.8469
     2.3207   2.3773   2.4725   2.5957   2.7827   2.8632   3.1750   3.2576
     3.4742

          k =-0.0402-0.0402 0.4134 ( 14940 PWs)   bands (ev):

   -44.2340 -26.4767 -25.3165 -25.2400 -25.2384 -22.7846 -22.6917 -22.6915
   -16.7379 -16.7369 -16.6125 -16.3504 -16.3494 -12.5664 -12.2997 -12.2283
   -12.2136 -11.5900 -11.5247 -10.1402  -9.8414  -9.8332  -9.2818  -8.9842
    -8.8646  -8.7321  -8.7307  -8.6582  -8.5755  -8.5106  -8.5029  -1.7820
     0.6300   0.7243   0.8498   1.0827   1.1802   1.5464   1.6015   1.8439
     2.2916   2.4170   2.4850   2.5225   2.7887   2.9291   3.0785   3.2501
     3.4367

          k =-0.0402 0.1866 0.1866 ( 14945 PWs)   bands (ev):

   -44.2340 -26.4767 -25.3173 -25.2389 -25.2387 -22.7847 -22.6916 -22.6916
   -16.7376 -16.7373 -16.6125 -16.3500 -16.3497 -12.5644 -12.2988 -12.2275
   -12.2238 -11.5689 -11.5487 -10.1407  -9.8365  -9.8359  -9.1877  -8.9309
    -8.8747  -8.7526  -8.7464  -8.6783  -8.6257  -8.5362  -8.5119  -1.8077
     0.6660   0.7829   0.7993   1.1410   1.1426   1.5822   1.6192   1.8281
     2.3354   2.3519   2.4831   2.5374   2.8294   2.8559   3.2014   3.2199
     3.4587

          k =-0.0603 0.1665 0.3933 ( 14937 PWs)   bands (ev):

   -44.2340 -26.4767 -25.3164 -25.2398 -25.2387 -22.7846 -22.6917 -22.6916
   -16.7377 -16.7369 -16.6125 -16.3505 -16.3497 -12.5706 -12.3110 -12.2249
   -12.2141 -11.5771 -11.5248 -10.1409  -9.8394  -9.8343  -9.2592  -8.9722
    -8.8950  -8.7212  -8.6952  -8.6557  -8.5964  -8.5375  -8.5081  -1.7713
     0.5962   0.7600   0.8444   1.0917   1.1578   1.5476   1.6104   1.8225
     2.2997   2.3871   2.4562   2.5044   2.8302   2.9313   3.1178   3.2166
     3.4227

          k = 0.0201 0.2469-0.4335 ( 14929 PWs)   bands (ev):

   -44.2340 -26.4767 -25.3161 -25.2402 -25.2386 -22.7846 -22.6918 -22.6916
   -16.7377 -16.7369 -16.6125 -16.3505 -16.3497 -12.5698 -12.3098 -12.2241
   -12.2121 -11.5790 -11.5228 -10.1405  -9.8411  -9.8339  -9.2976  -8.9978
    -8.9046  -8.7362  -8.6697  -8.6373  -8.5736  -8.5181  -8.5044  -1.7641
     0.5939   0.7460   0.8450   1.0728   1.1697   1.5373   1.5955   1.8324
     2.2933   2.3833   2.4742   2.5074   2.8286   2.9684   3.0639   3.2182
     3.4138

          k =-0.0000 0.2268-0.2268 ( 14955 PWs)   bands (ev):

   -44.2340 -26.4767 -25.3168 -25.2397 -25.2385 -22.7846 -22.6917 -22.6915
   -16.7376 -16.7373 -16.6125 -16.3500 -16.3496 -12.5628 -12.2975 -12.2260
   -12.2205 -11.5726 -11.5448 -10.1401  -9.8397  -9.8348  -9.2642  -8.9709
    -8.8958  -8.7700  -8.6896  -8.6454  -8.5893  -8.5133  -8.5035  -1.7964
     0.6595   0.7537   0.8080   1.1058   1.1655   1.5741   1.5871   1.8526
     2.3065   2.3750   2.4961   2.5346   2.8144   2.9317   3.0948   3.2344
     3.4442

          k =-0.0804 0.3732 0.3732 ( 14896 PWs)   bands (ev):

   -44.2340 -26.4766 -25.3159 -25.2398 -25.2391 -22.7847 -22.6917 -22.6916
   -16.7376 -16.7366 -16.6125 -16.3508 -16.3499 -12.5774 -12.3262 -12.2195
   -12.2115 -11.5682 -11.5145 -10.1416  -9.8379  -9.8357  -9.2712  -8.9872
    -8.8709  -8.7597  -8.6656  -8.6175  -8.6165  -8.5436  -8.5070  -1.7462
     0.5349   0.8028   0.8407   1.1104   1.1139   1.5366   1.6126   1.8043
     2.2942   2.3698   2.3789   2.5248   2.8446   2.9996   3.1195   3.1610
     3.3971

          k = 0.0000 0.4536-0.4536 ( 14920 PWs)   bands (ev):

   -44.2340 -26.4766 -25.3157 -25.2402 -25.2390 -22.7846 -22.6918 -22.6916
   -16.7376 -16.7367 -16.6125 -16.3508 -16.3499 -12.5769 -12.3254 -12.2193
   -12.2100 -11.5698 -11.5129 -10.1414  -9.8394  -9.8350  -9.2913  -9.0005
    -8.9063  -8.7336  -8.6388  -8.6325  -8.5883  -8.5416  -8.5053  -1.7417
     0.5342   0.7892   0.8456   1.0769   1.1437   1.5288   1.6043   1.8076
     2.2895   2.3476   2.4162   2.5232   2.8439   3.0428   3.0548   3.1755
     3.3910

          k = 0.1665 0.1665 0.1665 ( 14980 PWs)   bands (ev):

   -44.2340 -26.4767 -25.3175 -25.2387 -25.2387 -22.7847 -22.6916 -22.6916
   -16.7374 -16.7374 -16.6125 -16.3500 -16.3500 -12.5713 -12.3081 -12.2246
   -12.2246 -11.5540 -11.5540 -10.1414  -9.8350  -9.8350  -9.1033  -8.8845
    -8.8845  -8.7542  -8.7542  -8.7194  -8.6570  -8.5443  -8.5443  -1.7983
     0.6247   0.8127   0.8127   1.1390   1.1390   1.6148   1.6148   1.7795
     2.3527   2.3527   2.4619   2.4957   2.8488   2.8488   3.2309   3.2309
     3.4533

          k = 0.1464 0.1464 0.3732 ( 14929 PWs)   bands (ev):

   -44.2340 -26.4767 -25.3168 -25.2394 -25.2387 -22.7847 -22.6917 -22.6916
   -16.7375 -16.7369 -16.6125 -16.3506 -16.3500 -12.5787 -12.3202 -12.2233
   -12.2143 -11.5662 -11.5256 -10.1416  -9.8374  -9.8333  -9.1826  -8.9323
    -8.8702  -8.7412  -8.7229  -8.6694  -8.6196  -8.5592  -8.5454  -1.7630
     0.5493   0.7913   0.8630   1.1036   1.1478   1.5745   1.6092   1.7764
     2.3181   2.3795   2.4222   2.4800   2.8558   2.9255   3.1528   3.2224
     3.4193

          k = 0.2268 0.2268-0.4536 ( 14918 PWs)   bands (ev):

   -44.2340 -26.4767 -25.3161 -25.2401 -25.2387 -22.7846 -22.6917 -22.6916
   -16.7375 -16.7369 -16.6125 -16.3506 -16.3500 -12.5763 -12.3189 -12.2218
   -12.2108 -11.5684 -11.5222 -10.1411  -9.8404  -9.8332  -9.2767  -8.9852
    -8.8664  -8.7380  -8.7296  -8.6177  -8.5824  -8.5314  -8.5127  -1.7508
     0.5458   0.7666   0.8612   1.0805   1.1582   1.5522   1.5818   1.8072
     2.3129   2.3448   2.4582   2.4978   2.8674   2.9695   3.0729   3.2062
     3.4027

          k = 0.2067 0.2067-0.2469 ( 14928 PWs)   bands (ev):

   -44.2340 -26.4767 -25.3164 -25.2398 -25.2387 -22.7846 -22.6917 -22.6916
   -16.7374 -16.7374 -16.6125 -16.3500 -16.3500 -12.5669 -12.3070 -12.2219
   -12.2192 -11.5574 -11.5484 -10.1405  -9.8398  -9.8348  -9.2791  -8.9850
    -8.8695  -8.7542  -8.7397  -8.6054  -8.5887  -8.5240  -8.4955  -1.7791
     0.6190   0.7717   0.8112   1.1033   1.1504   1.5647   1.5851   1.8404
     2.3242   2.3409   2.4864   2.5087   2.8676   2.9389   3.0863   3.2054
     3.4251

          k = 0.1263 0.3531 0.3531 ( 14932 PWs)   bands (ev):

   -44.2340 -26.4766 -25.3164 -25.2393 -25.2391 -22.7847 -22.6917 -22.6916
   -16.7374 -16.7368 -16.6125 -16.3508 -16.3503 -12.5875 -12.3336 -12.2180
   -12.2120 -11.5545 -11.5190 -10.1422  -9.8349  -9.8348  -9.1777  -8.9324
    -8.8747  -8.7657  -8.6984  -8.6300  -8.6281  -8.5803  -8.5552  -1.7361
     0.4794   0.8315   0.8681   1.1097   1.1241   1.5579   1.6118   1.7500
     2.3086   2.3391   2.3841   2.4958   2.8919   2.9820   3.1451   3.1763
     3.3940

          k = 0.2067 0.4335-0.4737 ( 14931 PWs)   bands (ev):

   -44.2340 -26.4766 -25.3159 -25.2400 -25.2390 -22.7847 -22.6917 -22.6916
   -16.7374 -16.7368 -16.6125 -16.3508 -16.3503 -12.5850 -12.3333 -12.2166
   -12.2099 -11.5539 -11.5178 -10.1419  -9.8381  -9.8340  -9.2533  -8.9741
    -8.8957  -8.7332  -8.6917  -8.6172  -8.5856  -8.5687  -8.5205  -1.7280
     0.4809   0.8153   0.8618   1.0879   1.1355   1.5402   1.5913   1.7777
     2.2767   2.3399   2.4067   2.5108   2.9108   3.0273   3.0717   3.1566
     3.3804

          k = 0.1866 0.4134-0.2670 ( 14903 PWs)   bands (ev):

   -44.2340 -26.4766 -25.3159 -25.2402 -25.2389 -22.7846 -22.6918 -22.6916
   -16.7375 -16.7369 -16.6125 -16.3506 -16.3500 -12.5741 -12.3203 -12.2192
   -12.2129 -11.5605 -11.5280 -10.1411  -9.8399  -9.8347  -9.2939  -8.9992
    -8.9060  -8.7239  -8.6967  -8.6023  -8.5824  -8.5372  -8.4973  -1.7502
     0.5558   0.7828   0.8351   1.0790   1.1492   1.5360   1.5938   1.8171
     2.2892   2.3604   2.4284   2.5177   2.9061   2.9670   3.0792   3.1697
     3.3960

          k = 0.2871-0.3933-0.3933 ( 14921 PWs)   bands (ev):

   -44.2340 -26.4766 -25.3157 -25.2400 -25.2391 -22.7847 -22.6917 -22.6916
   -16.7374 -16.7368 -16.6125 -16.3508 -16.3503 -12.5838 -12.3340 -12.2146
   -12.2114 -11.5495 -11.5211 -10.1419  -9.8382  -9.8347  -9.2705  -8.9871
    -8.8699  -8.7579  -8.6952  -8.6144  -8.5901  -8.5473  -8.5070  -1.7277
     0.4848   0.8317   0.8400   1.1021   1.1159   1.5371   1.5913   1.7861
     2.2633   2.3693   2.3722   2.5226   2.9326   3.0180   3.1022   3.1094
     3.3776

          k = 0.3330 0.3330 0.3330 ( 14947 PWs)   bands (ev):

   -44.2340 -26.4766 -25.3165 -25.2391 -25.2391 -22.7848 -22.6916 -22.6916
   -16.7369 -16.7369 -16.6125 -16.3508 -16.3508 -12.6002 -12.3451 -12.2122
   -12.2122 -11.5282 -11.5282 -10.1429  -9.8333  -9.8333  -9.0928  -8.8847
    -8.8847  -8.7722  -8.7722  -8.6542  -8.5978  -8.5978  -8.5884  -1.7103
     0.3992   0.8813   0.8813   1.1152   1.1152   1.5883   1.5883   1.6865
     2.2512   2.3652   2.3652   2.4892   2.9848   2.9848   3.1462   3.1462
     3.3754

          k = 0.4134 0.4134-0.4938 ( 14922 PWs)   bands (ev):

   -44.2340 -26.4766 -25.3161 -25.2396 -25.2391 -22.7848 -22.6917 -22.6916
   -16.7369 -16.7369 -16.6124 -16.3508 -16.3508 -12.5981 -12.3450 -12.2119
   -12.2101 -11.5296 -11.5253 -10.1427  -9.8354  -9.8332  -9.1761  -8.9330
    -8.8722  -8.7608  -8.7350  -8.6247  -8.6010  -8.5894  -8.5507  -1.7050
     0.4002   0.8637   0.8811   1.1050   1.1205   1.5620   1.5739   1.7228
     2.2304   2.3633   2.3816   2.5004   3.0054   3.0190   3.0879   3.1218
     3.3655

     highest occupied level (ev):     3.5001

!    total energy              =   -1451.77073096 Ry
     total all-electron energy =     -1451.770731 Ry
     estimated scf accuracy    <          7.5E-14 Ry

     The total energy is the sum of the following terms:
     one-electron contribution =    -426.76831668 Ry
     hartree contribution      =     274.88764742 Ry
     xc contribution           =    -119.65601671 Ry
     ewald contribution        =    -357.40013201 Ry
     one-center paw contrib.   =    -822.83391297 Ry

     convergence has been achieved in  20 iterations

     Forces acting on atoms (cartesian axes, Ry/au):

     atom    1 type  1   force =     0.00000866    0.00000866    0.00000866
     atom    2 type  1   force =    -0.00012602   -0.00012602    0.00012463
     atom    3 type  1   force =    -0.00012602    0.00012463   -0.00012602
     atom    4 type  1   force =     0.00012463   -0.00012602   -0.00012602
     atom    5 type  3   force =     0.00023036    0.00023036    0.00023036
     atom    6 type  2   force =     0.00038664    0.00038664    0.00038664
     atom    7 type  4   force =     0.00039925   -0.00026020   -0.00026020
     atom    8 type  4   force =    -0.00049324    0.00005807    0.00005807
     atom    9 type  4   force =    -0.00026020    0.00039925   -0.00026020
     atom   10 type  4   force =     0.00005807   -0.00049324    0.00005807
     atom   11 type  4   force =    -0.00026020   -0.00026020    0.00039925
     atom   12 type  4   force =     0.00005807    0.00005807   -0.00049324

     Total force =     0.001544     Total SCF correction =     0.000001


     Computing stress (Cartesian axis) and pressure

          total   stress  (Ry/bohr**3)                   (kbar)     P=       -0.39
  -0.00000267   0.00000153   0.00000153           -0.39        0.23        0.23
   0.00000153  -0.00000267   0.00000153            0.23       -0.39        0.23
   0.00000153   0.00000153  -0.00000267            0.23        0.23       -0.39

     Energy error            =      7.7E-06 Ry
     Gradient error          =      4.9E-04 Ry/Bohr
     Cell gradient error     =      3.9E-01 kbar

     number of scf cycles    =   3
     number of bfgs steps    =   2

     enthalpy           old  =   -1451.7707232280 Ry
     enthalpy           new  =   -1451.7707309564 Ry

     CASE: enthalpy          _new < enthalpy          _old

     new trust radius        =       0.0034089693 bohr
     new conv_thr            =            1.0E-12 Ry

     new unit-cell volume =   1898.39835 a.u.^3 (   281.31361 Ang^3 )
     density =      2.72898 g/cm^3

CELL_PARAMETERS (angstrom)
   6.624725368   0.714861740   0.714861740
   0.714861740   6.624725368   0.714861740
   0.714861740   0.714861740   6.624725368

ATOMIC_POSITIONS (angstrom)
K             0.0745207181        0.0745207181        0.0745207181
K             2.8123453721        2.8123453721        0.4727489741
K             2.8123453721        0.4727489741        2.8123453721
K             0.4727489741        2.8123453721        2.8123453721
Sn            3.6841041606        3.6841041606        3.6841041606
Zr            5.5268337616        5.5268337616        5.5268337616
O             4.8041347045        2.5382076292        2.5382076292
O             2.2148523290       -1.6574770507       -1.6574770507
O             2.5382076292        4.8041347045        2.5382076292
O            -1.6574770507        2.2148523290       -1.6574770507
O             2.5382076292        2.5382076292        4.8041347045
O            -1.6574770507       -1.6574770507        2.2148523289



     Writing config-only to output data dir ./K4SnZrO6.save/
     NEW-OLD atomic charge density approx. for the potential
     extrapolated charge   97.90327, renormalised to   98.00000

     total cpu time spent up to now is      402.2 secs

     per-process dynamical memory:   114.2 Mb

     Self-consistent Calculation

     iteration #  1     ecut=    60.00 Ry     beta= 0.70
     Davidson diagonalization with overlap
     ethr =  1.00E-06,  avg # of iterations =  3.0

     total cpu time spent up to now is      407.1 secs

     total energy              =   -1451.76993301 Ry
     estimated scf accuracy    <       0.00058489 Ry

     iteration #  2     ecut=    60.00 Ry     beta= 0.70
     Davidson diagonalization with overlap
     ethr =  5.97E-07,  avg # of iterations =  4.0

     total cpu time spent up to now is      413.2 secs

     total energy              =   -1451.77055827 Ry
     estimated scf accuracy    <       0.00256162 Ry

     iteration #  3     ecut=    60.00 Ry     beta= 0.70
     Davidson diagonalization with overlap
     ethr =  5.97E-07,  avg # of iterations =  3.5

     total cpu time spent up to now is      418.0 secs

     total energy              =   -1451.77076779 Ry
     estimated scf accuracy    <       0.00028054 Ry

     iteration #  4     ecut=    60.00 Ry     beta= 0.70
     Davidson diagonalization with overlap
     ethr =  2.86E-07,  avg # of iterations =  3.0

     total cpu time spent up to now is      421.9 secs

     total energy              =   -1451.77075910 Ry
     estimated scf accuracy    <       0.00016248 Ry

     iteration #  5     ecut=    60.00 Ry     beta= 0.70
     Davidson diagonalization with overlap
     ethr =  1.66E-07,  avg # of iterations =  2.1

     total cpu time spent up to now is      425.5 secs

     total energy              =   -1451.77075136 Ry
     estimated scf accuracy    <       0.00009966 Ry

     iteration #  6     ecut=    60.00 Ry     beta= 0.70
     Davidson diagonalization with overlap
     ethr =  1.02E-07,  avg # of iterations =  1.0

     total cpu time spent up to now is      428.8 secs

     total energy              =   -1451.77074306 Ry
     estimated scf accuracy    <       0.00006072 Ry

     iteration #  7     ecut=    60.00 Ry     beta= 0.70
     Davidson diagonalization with overlap
     ethr =  6.20E-08,  avg # of iterations =  2.4

     total cpu time spent up to now is      432.5 secs

     total energy              =   -1451.77074181 Ry
     estimated scf accuracy    <       0.00002463 Ry

     iteration #  8     ecut=    60.00 Ry     beta= 0.70
     Davidson diagonalization with overlap
     ethr =  2.51E-08,  avg # of iterations =  2.2

     total cpu time spent up to now is      436.1 secs

     total energy              =   -1451.77074025 Ry
     estimated scf accuracy    <       0.00001157 Ry

     iteration #  9     ecut=    60.00 Ry     beta= 0.70
     Davidson diagonalization with overlap
     ethr =  1.18E-08,  avg # of iterations =  3.0

     total cpu time spent up to now is      440.2 secs

     total energy              =   -1451.77074122 Ry
     estimated scf accuracy    <       0.00000241 Ry

     iteration # 10     ecut=    60.00 Ry     beta= 0.70
     Davidson diagonalization with overlap
     ethr =  2.46E-09,  avg # of iterations =  2.0

     total cpu time spent up to now is      443.8 secs

     total energy              =   -1451.77074049 Ry
     estimated scf accuracy    <       0.00000193 Ry

     iteration # 11     ecut=    60.00 Ry     beta= 0.70
     Davidson diagonalization with overlap
     ethr =  1.96E-09,  avg # of iterations =  3.1

     total cpu time spent up to now is      448.3 secs

     total energy              =   -1451.77074091 Ry
     estimated scf accuracy    <       0.00000002 Ry

     iteration # 12     ecut=    60.00 Ry     beta= 0.70
     Davidson diagonalization with overlap
     ethr =  2.20E-11,  avg # of iterations =  4.0

     total cpu time spent up to now is      454.5 secs

     total energy              =   -1451.77074093 Ry
     estimated scf accuracy    <       0.00000008 Ry

     iteration # 13     ecut=    60.00 Ry     beta= 0.70
     Davidson diagonalization with overlap
     ethr =  2.20E-11,  avg # of iterations =  3.0

     total cpu time spent up to now is      458.7 secs

     total energy              =   -1451.77074092 Ry
     estimated scf accuracy    <       0.00000002 Ry

     iteration # 14     ecut=    60.00 Ry     beta= 0.70
     Davidson diagonalization with overlap
     ethr =  2.17E-11,  avg # of iterations =  4.0

     total cpu time spent up to now is      464.0 secs

     total energy              =   -1451.77074093 Ry
     estimated scf accuracy    <       0.00000004 Ry

     iteration # 15     ecut=    60.00 Ry     beta= 0.70
     Davidson diagonalization with overlap
     ethr =  2.17E-11,  avg # of iterations =  3.0

     total cpu time spent up to now is      468.2 secs

     total energy              =   -1451.77074093 Ry
     estimated scf accuracy    <          6.4E-09 Ry

     iteration # 16     ecut=    60.00 Ry     beta= 0.70
     Davidson diagonalization with overlap
     ethr =  6.49E-12,  avg # of iterations =  3.0

     total cpu time spent up to now is      472.1 secs

     total energy              =   -1451.77074093 Ry
     estimated scf accuracy    <          1.4E-09 Ry

     iteration # 17     ecut=    60.00 Ry     beta= 0.70
     Davidson diagonalization with overlap
     ethr =  1.38E-12,  avg # of iterations =  3.4

     total cpu time spent up to now is      476.3 secs

     total energy              =   -1451.77074093 Ry
     estimated scf accuracy    <          3.7E-10 Ry

     iteration # 18     ecut=    60.00 Ry     beta= 0.70
     Davidson diagonalization with overlap
     ethr =  3.74E-13,  avg # of iterations =  3.0

     total cpu time spent up to now is      480.7 secs

     total energy              =   -1451.77074093 Ry
     estimated scf accuracy    <          4.4E-11 Ry

     iteration # 19     ecut=    60.00 Ry     beta= 0.70
     Davidson diagonalization with overlap
     ethr =  1.00E-13,  avg # of iterations =  3.0

     total cpu time spent up to now is      484.8 secs

     total energy              =   -1451.77074093 Ry
     estimated scf accuracy    <          1.5E-12 Ry

     iteration # 20     ecut=    60.00 Ry     beta= 0.70
     Davidson diagonalization with overlap
     ethr =  1.00E-13,  avg # of iterations =  1.0

     total cpu time spent up to now is      488.1 secs

     End of self-consistent calculation

          k = 0.0000 0.0000 0.0000 ( 14961 PWs)   bands (ev):

   -44.2282 -26.4632 -25.3100 -25.2298 -25.2298 -22.7791 -22.6857 -22.6857
   -16.7307 -16.7307 -16.6048 -16.3418 -16.3418 -12.5514 -12.2739 -12.2276
   -12.2276 -11.5619 -11.5619 -10.1272  -9.8226  -9.8226  -9.1063  -8.8753
    -8.8753  -8.7889  -8.7381  -8.7381  -8.6498  -8.5000  -8.5000  -1.8407
     0.7603   0.7788   0.7788   1.1682   1.1682   1.6210   1.6210   1.8499
     2.3638   2.3638   2.4534   2.6838   2.7855   2.7855   3.2677   3.2677
     3.5071

          k =-0.0201-0.0201 0.2068 ( 14971 PWs)   bands (ev):

   -44.2282 -26.4632 -25.3093 -25.2304 -25.2298 -22.7791 -22.6858 -22.6857
   -16.7308 -16.7304 -16.6047 -16.3422 -16.3418 -12.5546 -12.2830 -12.2253
   -12.2204 -11.5699 -11.5445 -10.1271  -9.8246  -9.8215  -9.1846  -8.9227
    -8.8639  -8.7698  -8.7278  -8.6796  -8.6129  -8.5094  -8.4986  -1.8164
     0.7100   0.7619   0.8074   1.1391   1.1730   1.5987   1.6139   1.8533
     2.3272   2.3840   2.4789   2.6023   2.7894   2.8700   3.1818   3.2645
     3.4812

          k =-0.0403-0.0403 0.4136 ( 14940 PWs)   bands (ev):

   -44.2282 -26.4632 -25.3083 -25.2314 -25.2298 -22.7790 -22.6859 -22.6857
   -16.7309 -16.7299 -16.6047 -16.3427 -16.3418 -12.5609 -12.2938 -12.2232
   -12.2084 -11.5832 -11.5177 -10.1270  -9.8280  -9.8197  -9.2749  -8.9763
    -8.8564  -8.7233  -8.7226  -8.6494  -8.5662  -8.5014  -8.4941  -1.7755
     0.6354   0.7301   0.8560   1.0887   1.1861   1.5527   1.6074   1.8503
     2.2979   2.4236   2.4914   2.5293   2.7954   2.9359   3.0852   3.2570
     3.4436

          k =-0.0403 0.1866 0.1866 ( 14945 PWs)   bands (ev):

   -44.2282 -26.4632 -25.3091 -25.2303 -25.2300 -22.7791 -22.6858 -22.6858
   -16.7307 -16.7303 -16.6047 -16.3423 -16.3420 -12.5589 -12.2929 -12.2224
   -12.2187 -11.5620 -11.5417 -10.1276  -9.8231  -9.8225  -9.1804  -8.9228
    -8.8664  -8.7445  -8.7377  -8.6693  -8.6166  -8.5274  -8.5031  -1.8014
     0.6715   0.7890   0.8053   1.1471   1.1487   1.5883   1.6254   1.8344
     2.3420   2.3583   2.4895   2.5440   2.8361   2.8626   3.2082   3.2268
     3.4657

          k =-0.0604 0.1665 0.3934 ( 14937 PWs)   bands (ev):

   -44.2282 -26.4632 -25.3082 -25.2312 -25.2300 -22.7791 -22.6859 -22.6858
   -16.7308 -16.7299 -16.6047 -16.3428 -16.3420 -12.5652 -12.3051 -12.2198
   -12.2089 -11.5702 -11.5178 -10.1277  -9.8260  -9.8208  -9.2522  -8.9642
    -8.8870  -8.7127  -8.6866  -8.6467  -8.5874  -8.5285  -8.4991  -1.7648
     0.6017   0.7659   0.8506   1.0976   1.1637   1.5540   1.6166   1.8288
     2.3059   2.3934   2.4627   2.5109   2.8369   2.9381   3.1246   3.2235
     3.4296

          k = 0.0201 0.2471-0.4337 ( 14929 PWs)   bands (ev):

   -44.2282 -26.4632 -25.3079 -25.2316 -25.2300 -22.7790 -22.6859 -22.6857
   -16.7308 -16.7299 -16.6047 -16.3429 -16.3420 -12.5643 -12.3040 -12.2190
   -12.2069 -11.5721 -11.5158 -10.1274  -9.8277  -9.8205  -9.2907  -8.9900
    -8.8967  -8.7279  -8.6607  -8.6285  -8.5643  -8.5090  -8.4953  -1.7576
     0.5994   0.7519   0.8513   1.0787   1.1755   1.5437   1.6015   1.8387
     2.2994   2.3897   2.4808   2.5139   2.8354   2.9753   3.0707   3.2250
     3.4207

          k =-0.0000 0.2269-0.2269 ( 14955 PWs)   bands (ev):

   -44.2282 -26.4632 -25.3086 -25.2310 -25.2299 -22.7790 -22.6859 -22.6857
   -16.7307 -16.7303 -16.6047 -16.3423 -16.3420 -12.5574 -12.2916 -12.2209
   -12.2153 -11.5657 -11.5378 -10.1270  -9.8263  -9.8214  -9.2573  -8.9630
    -8.8878  -8.7619  -8.6806  -8.6364  -8.5802  -8.5045  -8.4945  -1.7900
     0.6650   0.7595   0.8141   1.1119   1.1716   1.5804   1.5930   1.8590
     2.3127   2.3817   2.5025   2.5412   2.8211   2.9386   3.1015   3.2413
     3.4511

          k =-0.0806 0.3733 0.3733 ( 14896 PWs)   bands (ev):

   -44.2282 -26.4632 -25.3077 -25.2312 -25.2305 -22.7791 -22.6859 -22.6858
   -16.7306 -16.7297 -16.6047 -16.3432 -16.3423 -12.5719 -12.3204 -12.2143
   -12.2064 -11.5613 -11.5075 -10.1285  -9.8245  -9.8222  -9.2642  -8.9794
    -8.8626  -8.7510  -8.6571  -8.6086  -8.6077  -8.5344  -8.4979  -1.7396
     0.5402   0.8089   0.8470   1.1162   1.1195   1.5432   1.6189   1.8105
     2.3003   2.3761   2.3850   2.5313   2.8513   3.0065   3.1264   3.1678
     3.4041

          k = 0.0000 0.4538-0.4538 ( 14920 PWs)   bands (ev):

   -44.2282 -26.4632 -25.3075 -25.2315 -25.2303 -22.7791 -22.6859 -22.6858
   -16.7307 -16.7297 -16.6047 -16.3432 -16.3423 -12.5714 -12.3195 -12.2142
   -12.2048 -11.5629 -11.5059 -10.1283  -9.8260  -9.8215  -9.2844  -8.9927
    -8.8983  -8.7250  -8.6299  -8.6237  -8.5793  -8.5324  -8.4962  -1.7351
     0.5396   0.7952   0.8518   1.0826   1.1494   1.5355   1.6106   1.8138
     2.2955   2.3539   2.4225   2.5297   2.8506   3.0498   3.0616   3.1823
     3.3980

          k = 0.1665 0.1665 0.1665 ( 14980 PWs)   bands (ev):

   -44.2282 -26.4632 -25.3093 -25.2300 -25.2300 -22.7792 -22.6858 -22.6858
   -16.7304 -16.7304 -16.6047 -16.3423 -16.3423 -12.5659 -12.3022 -12.2195
   -12.2195 -11.5471 -11.5471 -10.1283  -9.8216  -9.8216  -9.0956  -8.8760
[...]
O             2.5495829224        4.8164843667        2.5495829224
O            -1.6536066379        2.1963805262       -1.6536066379
O             2.5495829224        2.5495829224        4.8164843667
O            -1.6536066379       -1.6536066379        2.1963805261



     Writing config-only to output data dir ./K4SnZrO6.save/
     NEW-OLD atomic charge density approx. for the potential
     extrapolated charge   97.99994, renormalised to   98.00000

     total cpu time spent up to now is     2934.0 secs

     per-process dynamical memory:   114.2 Mb

     Self-consistent Calculation

     iteration #  1     ecut=    60.00 Ry     beta= 0.70
     Davidson diagonalization with overlap
     ethr =  1.00E-06,  avg # of iterations =  2.0

     Threshold (ethr) on eigenvalues was too large:
     Diagonalizing with lowered threshold

     Davidson diagonalization with overlap
     ethr =  1.28E-12,  avg # of iterations =  4.0

     total cpu time spent up to now is     2942.8 secs

     total energy              =   -1451.77079542 Ry
     estimated scf accuracy    <          8.4E-10 Ry

     iteration #  2     ecut=    60.00 Ry     beta= 0.70
     Davidson diagonalization with overlap
     ethr =  8.56E-13,  avg # of iterations =  4.0

     total cpu time spent up to now is     2948.6 secs

     total energy              =   -1451.77079542 Ry
     estimated scf accuracy    <          1.5E-09 Ry

     iteration #  3     ecut=    60.00 Ry     beta= 0.70
     Davidson diagonalization with overlap
     ethr =  8.56E-13,  avg # of iterations =  3.6

     total cpu time spent up to now is     2953.1 secs

     total energy              =   -1451.77079542 Ry
     estimated scf accuracy    <          1.2E-10 Ry

     iteration #  4     ecut=    60.00 Ry     beta= 0.70
     Davidson diagonalization with overlap
     ethr =  1.25E-13,  avg # of iterations =  4.0

     total cpu time spent up to now is     2957.9 secs

     total energy              =   -1451.77079542 Ry
     estimated scf accuracy    <          4.9E-11 Ry

     iteration #  5     ecut=    60.00 Ry     beta= 0.70
     Davidson diagonalization with overlap
     ethr =  1.00E-13,  avg # of iterations =  2.0

     total cpu time spent up to now is     2961.6 secs

     total energy              =   -1451.77079542 Ry
     estimated scf accuracy    <          1.2E-11 Ry

     iteration #  6     ecut=    60.00 Ry     beta= 0.70
     Davidson diagonalization with overlap
     ethr =  1.00E-13,  avg # of iterations =  1.0

     total cpu time spent up to now is     2965.0 secs

     total energy              =   -1451.77079542 Ry
     estimated scf accuracy    <          4.0E-12 Ry

     iteration #  7     ecut=    60.00 Ry     beta= 0.70
     Davidson diagonalization with overlap
     ethr =  1.00E-13,  avg # of iterations =  1.0

     total cpu time spent up to now is     2968.3 secs

     End of self-consistent calculation

          k = 0.0000 0.0000 0.0000 ( 14961 PWs)   bands (ev):

   -44.2001 -26.3598 -25.2955 -25.2088 -25.2088 -22.7495 -22.6548 -22.6548
   -16.6933 -16.6933 -16.5687 -16.3063 -16.3063 -12.5201 -12.2365 -12.1991
   -12.1991 -11.5263 -11.5263 -10.0254  -9.7200  -9.7200  -9.1054  -8.8571
    -8.8571  -8.7726  -8.7149  -8.7149  -8.6225  -8.4764  -8.4764  -1.8103
     0.7946   0.8120   0.8120   1.2029   1.2029   1.6559   1.6559   1.8812
     2.4003   2.4003   2.4859   2.7264   2.8227   2.8227   3.3059   3.3059
     3.5463

          k =-0.0206-0.0206 0.2072 ( 14971 PWs)   bands (ev):

   -44.2001 -26.3598 -25.2948 -25.2094 -25.2088 -22.7495 -22.6548 -22.6548
   -16.6934 -16.6930 -16.5687 -16.3067 -16.3063 -12.5226 -12.2463 -12.1967
   -12.1917 -11.5344 -11.5089 -10.0253  -9.7221  -9.7188  -9.1833  -8.9071
    -8.8500  -8.7530  -8.7025  -8.6537  -8.5854  -8.4849  -8.4747  -1.7853
     0.7439   0.7943   0.8413   1.1734   1.2073   1.6338   1.6483   1.8854
     2.3616   2.4205   2.5126   2.6434   2.8264   2.9077   3.2188   3.3023
     3.5199

          k =-0.0411-0.0411 0.4145 ( 14940 PWs)   bands (ev):

   -44.2001 -26.3597 -25.2938 -25.2104 -25.2088 -22.7494 -22.6550 -22.6548
   -16.6935 -16.6925 -16.5687 -16.3072 -16.3063 -12.5277 -12.2578 -12.1947
   -12.1794 -11.5479 -11.4819 -10.0254  -9.7256  -9.7170  -9.2752  -8.9632
    -8.8440  -8.7058  -8.6971  -8.6249  -8.5383  -8.4721  -8.4692  -1.7432
     0.6689   0.7614   0.8913   1.1223   1.2199   1.5881   1.6415   1.8829
     2.3312   2.4603   2.5248   2.5695   2.8322   2.9722   3.1218   3.2941
     3.4819

          k =-0.0411 0.1867 0.1867 ( 14945 PWs)   bands (ev):

   -44.2001 -26.3597 -25.2946 -25.2093 -25.2091 -22.7495 -22.6548 -22.6548
   -16.6933 -16.6929 -16.5687 -16.3068 -16.3065 -12.5264 -12.2567 -12.1938
   -12.1900 -11.5265 -11.5061 -10.0258  -9.7205  -9.7199  -9.1789  -8.9075
    -8.8525  -8.7274  -8.7128  -8.6434  -8.5893  -8.5028  -8.4790  -1.7700
     0.7054   0.8225   0.8389   1.1815   1.1826   1.6229   1.6613   1.8665
     2.3772   2.3924   2.5237   2.5842   2.8733   2.8995   3.2449   3.2648
     3.5044

          k =-0.0617 0.1661 0.3939 ( 14937 PWs)   bands (ev):

   -44.2001 -26.3597 -25.2937 -25.2102 -25.2090 -22.7495 -22.6549 -22.6548
   -16.6934 -16.6925 -16.5687 -16.3073 -16.3065 -12.5314 -12.2699 -12.1912
   -12.1800 -11.5349 -11.4820 -10.0261  -9.7236  -9.7181  -9.2519  -8.9501
    -8.8751  -8.6924  -8.6641  -8.6212  -8.5601  -8.5017  -8.4729  -1.7325
     0.6353   0.7985   0.8856   1.1312   1.1972   1.5893   1.6521   1.8614
     2.3389   2.4282   2.5008   2.5458   2.8737   2.9744   3.1614   3.2604
     3.4681

          k = 0.0206 0.2484-0.4351 ( 14929 PWs)   bands (ev):

   -44.2001 -26.3597 -25.2934 -25.2106 -25.2090 -22.7494 -22.6550 -22.6548
   -16.6934 -16.6925 -16.5687 -16.3073 -16.3065 -12.5304 -12.2686 -12.1904
   -12.1779 -11.5367 -11.4801 -10.0258  -9.7253  -9.7178  -9.2913  -8.9767
    -8.8854  -8.7085  -8.6348  -8.6057  -8.5365  -8.4816  -8.4678  -1.7249
     0.6331   0.7837   0.8863   1.1119   1.2090   1.5795   1.6362   1.8713
     2.3320   2.4260   2.5178   2.5490   2.8721   3.0116   3.1073   3.2620
     3.4588

          k = 0.0000 0.2278-0.2278 ( 14955 PWs)   bands (ev):

   -44.2001 -26.3597 -25.2941 -25.2101 -25.2089 -22.7494 -22.6549 -22.6548
   -16.6933 -16.6929 -16.5687 -16.3068 -16.3065 -12.5244 -12.2555 -12.1923
   -12.1864 -11.5302 -11.5022 -10.0253  -9.7239  -9.7187  -9.2572  -8.9486
    -8.8761  -8.7441  -8.6544  -8.6103  -8.5530  -8.4800  -8.4679  -1.7581
     0.6989   0.7915   0.8482   1.1456   1.2056   1.6158   1.6271   1.8916
     2.3459   2.4182   2.5368   2.5811   2.8580   2.9765   3.1373   3.2789
     3.4893

          k =-0.0823 0.3733 0.3733 ( 14896 PWs)   bands (ev):

   -44.2001 -26.3597 -25.2932 -25.2102 -25.2095 -22.7495 -22.6550 -22.6548
   -16.6933 -16.6923 -16.5687 -16.3076 -16.3068 -12.5372 -12.2862 -12.1855
   -12.1776 -11.5260 -11.4718 -10.0271  -9.7218  -9.7197  -9.2639  -8.9670
    -8.8502  -8.7263  -8.6381  -8.5853  -8.5815  -8.5057  -8.4699  -1.7069
     0.5741   0.8432   0.8817   1.1504   1.1514   1.5790   1.6558   1.8433
     2.3325   2.4133   2.4175   2.5660   2.8873   3.0432   3.1637   3.2034
     3.4427

          k = 0.0000 0.4556-0.4556 ( 14920 PWs)   bands (ev):

   -44.2001 -26.3597 -25.2930 -25.2106 -25.2093 -22.7495 -22.6550 -22.6548
   -16.6933 -16.6923 -16.5687 -16.3077 -16.3068 -12.5366 -12.2853 -12.1855
   -12.1760 -11.5275 -11.4702 -10.0269  -9.7234  -9.7189  -9.2846  -8.9799
    -8.8869  -8.7025  -8.6083  -8.6002  -8.5529  -8.5038  -8.4679  -1.7021
     0.5735   0.8288   0.8869   1.1156   1.1822   1.5717   1.6469   1.8463
     2.3270   2.3902   2.4569   2.5642   2.8865   3.0864   3.0985   3.2184
     3.4363

          k = 0.1661 0.1661 0.1661 ( 14980 PWs)   bands (ev):

   -44.2001 -26.3597 -25.2949 -25.2090 -25.2090 -22.7496 -22.6548 -22.6548
   -16.6930 -16.6930 -16.5687 -16.3068 -16.3068 -12.5332 -12.2666 -12.1910
   -12.1910 -11.5115 -11.5115 -10.0266  -9.7189  -9.7189  -9.0941  -8.8582
    -8.8582  -8.7228  -8.7228  -8.6950  -8.6208  -8.5114  -8.5114  -1.7606
     0.6638   0.8532   0.8532   1.1792   1.1792   1.6571   1.6571   1.8168
     2.3940   2.3940   2.5009   2.5414   2.8925   2.8925   3.2757   3.2757
     3.4994

          k = 0.1455 0.1455 0.3733 ( 14929 PWs)   bands (ev):

   -44.2001 -26.3597 -25.2941 -25.2098 -25.2090 -22.7496 -22.6549 -22.6548
   -16.6932 -16.6925 -16.5687 -16.3074 -16.3068 -12.5394 -12.2797 -12.1897
   -12.1804 -11.5239 -11.4829 -10.0268  -9.7214  -9.7171  -9.1734  -8.9088
    -8.8484  -8.7078  -8.6903  -8.6437  -8.5832  -8.5241  -8.5120  -1.7242
     0.5880   0.8309   0.9051   1.1434   1.1872   1.6173   1.6511   1.8146
     2.3574   2.4211   2.4658   2.5193   2.8995   2.9683   3.1972   3.2665
     3.4652

          k = 0.2278 0.2278-0.4556 ( 14918 PWs)   bands (ev):

   -44.2001 -26.3597 -25.2934 -25.2105 -25.2090 -22.7495 -22.6550 -22.6548
   -16.6932 -16.6925 -16.5687 -16.3074 -16.3068 -12.5365 -12.2783 -12.1882
   -12.1767 -11.5261 -11.4795 -10.0264  -9.7245  -9.7169  -9.2697  -8.9644
    -8.8462  -8.7036  -8.7007  -8.5875  -8.5466  -8.4955  -8.4746  -1.7114
     0.5845   0.8049   0.9032   1.1196   1.1975   1.5949   1.6229   1.8458
     2.3519   2.3868   2.5019   2.5375   2.9112   3.0117   3.1169   3.2500
     3.4478

          k = 0.2072 0.2072-0.2484 ( 14928 PWs)   bands (ev):

   -44.2001 -26.3597 -25.2937 -25.2102 -25.2091 -22.7494 -22.6549 -22.6548
   -16.6930 -16.6930 -16.5687 -16.3068 -16.3068 -12.5279 -12.2655 -12.1882
   -12.1851 -11.5149 -11.5059 -10.0257  -9.7239  -9.7187  -9.2724  -8.9642
    -8.8492  -8.7274  -8.7052  -8.5709  -8.5528  -8.4883  -8.4596  -1.7404
     0.6583   0.8099   0.8516   1.1425   1.1905   1.6050   1.6275   1.8795
     2.3634   2.3826   2.5318   2.5497   2.9114   2.9835   3.1283   3.2497
     3.4701

          k = 0.1250 0.3528 0.3528 ( 14932 PWs)   bands (ev):

   -44.2001 -26.3597 -25.2938 -25.2096 -25.2095 -22.7496 -22.6549 -22.6549
   -16.6930 -16.6924 -16.5687 -16.3076 -16.3071 -12.5474 -12.2943 -12.1842
   -12.1781 -11.5122 -11.4763 -10.0276  -9.7187  -9.7187  -9.1681  -8.9095
    -8.8526  -8.7332  -8.6649  -8.6030  -8.5941  -8.5450  -8.5208  -1.6966
     0.5178   0.8727   0.9103   1.1496   1.1626   1.6005   1.6554   1.7881
     2.3486   2.3799   2.4233   2.5357   2.9351   3.0250   3.1900   3.2197
     3.4400

          k = 0.2072 0.4351-0.4762 ( 14931 PWs)   bands (ev):

   -44.2001 -26.3597 -25.2932 -25.2104 -25.2094 -22.7495 -22.6550 -22.6548
   -16.6930 -16.6924 -16.5687 -16.3077 -16.3071 -12.5444 -12.2939 -12.1828
   -12.1759 -11.5116 -11.4751 -10.0273  -9.7221  -9.7179  -9.2455  -8.9524
    -8.8759  -8.7018  -8.6588  -8.5850  -8.5522  -8.5331  -8.4841  -1.6882
     0.5197   0.8557   0.9038   1.1266   1.1741   1.5831   1.6342   1.8162
     2.3163   2.3798   2.4469   2.5508   2.9540   3.0700   3.1161   3.1998
     3.4258

          k = 0.1867 0.4145-0.2690 ( 14903 PWs)   bands (ev):

   -44.2001 -26.3597 -25.2932 -25.2106 -25.2092 -22.7494 -22.6550 -22.6548
   -16.6931 -16.6925 -16.5687 -16.3074 -16.3068 -12.5341 -12.2799 -12.1854
   -12.1789 -11.5182 -11.4853 -10.0264  -9.7240  -9.7186  -9.2874  -8.9784
    -8.8867  -8.6961  -8.6630  -8.5689  -8.5462  -8.4996  -8.4615  -1.7108
     0.5951   0.8218   0.8760   1.1177   1.1883   1.5782   1.6359   1.8559
     2.3281   2.4012   2.4713   2.5584   2.9502   3.0103   3.1220   3.2132
     3.4410

          k = 0.2895-0.3939-0.3939 ( 14921 PWs)   bands (ev):

   -44.2001 -26.3597 -25.2930 -25.2104 -25.2095 -22.7495 -22.6550 -22.6549
   -16.6930 -16.6924 -16.5687 -16.3076 -16.3071 -12.5431 -12.2947 -12.1806
   -12.1776 -11.5071 -11.4784 -10.0274  -9.7221  -9.7185  -9.2631  -8.9669
    -8.8495  -8.7246  -8.6655  -8.5796  -8.5590  -8.5092  -8.4708  -1.6879
     0.5238   0.8730   0.8808   1.1397   1.1555   1.5798   1.6347   1.8247
     2.3027   2.4102   2.4108   2.5631   2.9760   3.0619   3.1459   3.1516
     3.4230

          k = 0.3322 0.3322 0.3322 ( 14947 PWs)   bands (ev):

   -44.2001 -26.3597 -25.2939 -25.2095 -25.2095 -22.7497 -22.6549 -22.6549
   -16.6926 -16.6926 -16.5687 -16.3076 -16.3076 -12.5596 -12.3068 -12.1784
   -12.1784 -11.4858 -11.4858 -10.0282  -9.7171  -9.7171  -9.0827  -8.8590
    -8.8590  -8.7419  -8.7419  -8.6181  -8.5640  -8.5635  -8.5635  -1.6702
     0.4369   0.9242   0.9242   1.1543   1.1543   1.6322   1.6322   1.7228
     2.2917   2.4038   2.4038   2.5284   3.0276   3.0276   3.1910   3.1910
     3.4216

          k = 0.4145 0.4145-0.4968 ( 14922 PWs)   bands (ev):

   -44.2001 -26.3597 -25.2934 -25.2099 -25.2095 -22.7496 -22.6549 -22.6549
   -16.6926 -16.6926 -16.5687 -16.3076 -16.3076 -12.5572 -12.3067 -12.1781
   -12.1762 -11.4871 -11.4828 -10.0281  -9.7192  -9.7170  -9.1663  -8.9101
    -8.8508  -8.7286  -8.7029  -8.5891  -8.5690  -8.5538  -8.5211  -1.6647
     0.4382   0.9058   0.9240   1.1436   1.1594   1.6050   1.6178   1.7606
     2.2702   2.4018   2.4207   2.5397   3.0485   3.0610   3.1327   3.1662
     3.4114

     highest occupied level (ev):     3.5463

!    total energy              =   -1451.77079542 Ry
     total all-electron energy =     -1451.770795 Ry
     estimated scf accuracy    <          6.3E-13 Ry

     The total energy is the sum of the following terms:
     one-electron contribution =    -423.62404690 Ry
     hartree contribution      =     273.47806014 Ry
     xc contribution           =    -119.66206273 Ry
     ewald contribution        =    -359.12746089 Ry
     one-center paw contrib.   =    -822.83528503 Ry

     convergence has been achieved in   7 iterations

     Forces acting on atoms (cartesian axes, Ry/au):

     atom    1 type  1   force =     0.00000905    0.00000905    0.00000905
     atom    2 type  1   force =    -0.00000526   -0.00000526    0.00000772
     atom    3 type  1   force =    -0.00000526    0.00000772   -0.00000526
     atom    4 type  1   force =     0.00000772   -0.00000526   -0.00000526
     atom    5 type  3   force =     0.00000811    0.00000811    0.00000811
     atom    6 type  2   force =     0.00000661    0.00000661    0.00000661
     atom    7 type  4   force =    -0.00000242    0.00000108    0.00000108
     atom    8 type  4   force =     0.00000529   -0.00001299   -0.00001299
     atom    9 type  4   force =     0.00000108   -0.00000242    0.00000108
     atom   10 type  4   force =    -0.00001299    0.00000529   -0.00001299
     atom   11 type  4   force =     0.00000108    0.00000108   -0.00000242
     atom   12 type  4   force =    -0.00001299   -0.00001299    0.00000529

     Total force =     0.000045     Total SCF correction =     0.000004


     Computing stress (Cartesian axis) and pressure

          total   stress  (Ry/bohr**3)                   (kbar)     P=       -0.00
  -0.00000001  -0.00000001  -0.00000001           -0.00       -0.00       -0.00
  -0.00000001  -0.00000001  -0.00000001           -0.00       -0.00       -0.00
  -0.00000001  -0.00000001  -0.00000001           -0.00       -0.00       -0.00

     Message from routine bfgs:
     history already reset at previous step: exiting
     Energy error            =      2.4E-09 Ry
     Gradient error          =      1.3E-05 Ry/Bohr
     Cell gradient error     =      1.3E-03 kbar

     bfgs failed after  27 scf cycles and  26 bfgs steps, convergence not achieved
     (criteria: energy <  1.0E-04 Ry, force <  1.0E-05 Ry/Bohr, cell <  5.0E-01 kbar)

     End of BFGS Geometry Optimization

     Final enthalpy           =   -1451.7707954172 Ry

     File ./K4SnZrO6.bfgs deleted, as requested
Begin final coordinates
     new unit-cell volume =   1888.04804 a.u.^3 (   279.77985 Ang^3 )
     density =      2.74394 g/cm^3

CELL_PARAMETERS (angstrom)
   6.615717395   0.729087011   0.729087011
   0.729087011   6.615717395   0.729087011
   0.729087011   0.729087011   6.615717395

ATOMIC_POSITIONS (angstrom)
K             0.0749255109        0.0749255109        0.0749255109
K             2.8096503052        2.8096503052        0.4889632392
K             2.8096503052        0.4889632392        2.8096503052
K             0.4889632392        2.8096503052        2.8096503052
Sn            3.6959160616        3.6959160616        3.6959160616
Zr            5.5377513676        5.5377513676        5.5377513676
O             4.8164843667        2.5495829224        2.5495829224
O             2.1963805262       -1.6536066379       -1.6536066379
O             2.5495829224        4.8164843667        2.5495829224
O            -1.6536066379        2.1963805262       -1.6536066379
O             2.5495829224        2.5495829224        4.8164843667
O            -1.6536066379       -1.6536066379        2.1963805261
End final coordinates



     Writing config-only to output data dir ./K4SnZrO6.save/

     Writing all to output data dir ./K4SnZrO6.save/

     init_run     :     16.53s CPU     16.75s WALL (       1 calls)
     electrons    :   1716.86s CPU   1770.47s WALL (      27 calls)
     update_pot   :    426.42s CPU    427.24s WALL (      26 calls)
     forces       :    251.58s CPU    253.03s WALL (      27 calls)
     stress       :    500.56s CPU    503.81s WALL (      27 calls)

     Called by init_run:
     wfcinit      :      2.44s CPU      2.50s WALL (       1 calls)
     potinit      :      4.61s CPU      4.66s WALL (       1 calls)
     hinit0       :      9.13s CPU      9.20s WALL (       1 calls)

     Called by electrons:
     c_bands      :   1132.99s CPU   1154.21s WALL (     417 calls)
     sum_band     :    264.44s CPU    281.06s WALL (     417 calls)
     v_of_rho     :     17.86s CPU     18.42s WALL (     425 calls)
     newd         :    107.03s CPU    118.01s WALL (     425 calls)
     PAW_pot      :    224.76s CPU    226.47s WALL (     451 calls)
     mix_rho      :      2.28s CPU      2.38s WALL (     417 calls)

     Called by c_bands:
     init_us_2    :     18.64s CPU     19.17s WALL (   17385 calls)
     init_us_2:cp :     18.56s CPU     19.14s WALL (   17385 calls)
     cegterg      :   1071.93s CPU   1092.25s WALL (    7923 calls)

     Called by *egterg:
     cdiaghg      :    233.68s CPU    236.98s WALL (   28648 calls)
     h_psi        :    579.73s CPU    593.13s WALL (   29522 calls)
     s_psi        :     65.79s CPU     66.34s WALL (   29522 calls)
     g_psi        :     10.87s CPU     10.94s WALL (   21580 calls)

     Called by h_psi:
     h_psi:calbec :     71.39s CPU     74.10s WALL (   29522 calls)
     vloc_psi     :    438.96s CPU    449.11s WALL (   29522 calls)
     add_vuspsi   :     66.25s CPU     66.81s WALL (   29522 calls)

     General routines
     calbec       :    107.81s CPU    112.03s WALL (   40504 calls)
     fft          :     12.16s CPU     13.06s WALL (    6191 calls)
     ffts         :      0.58s CPU      0.62s WALL (     842 calls)
     fftw         :    461.26s CPU    471.79s WALL ( 2363179 calls)
     interpolate  :      1.06s CPU      1.13s WALL (     425 calls)
     davcio       :      0.00s CPU      0.01s WALL (      19 calls)

     Parallel routines

     PWSCF        :  48m55.67s CPU  50m 1.03s WALL


   This run was terminated on:  15:35:44  30Nov2025            

=------------------------------------------------------------------------------=
   JOB DONE.
=------------------------------------------------------------------------------=
STOP 3
STOP 3
STOP 3
STOP 3
STOP 3
STOP 3
STOP 3
STOP 3
STOP 3
STOP 3
STOP 3
STOP 3
STOP 3
STOP 3
STOP 3
STOP 3
--------------------------------------------------------------------------
Primary job  terminated normally, but 1 process returned
a non-zero exit code. Per user-direction, the job has been aborted.
--------------------------------------------------------------------------
--------------------------------------------------------------------------
mpirun detected that one or more processes exited with non-zero status, thus causing
the job to be terminated. The first process to do so was:

  Process name: [[41239,1],7]
  Exit code:    3
--------------------------------------------------------------------------
