
     Program PWSCF v.7.1 starts on  1Dec2025 at  2: 2:24 

     This program is part of the open-source Quantum ESPRESSO suite
     for quantum simulation of materials; please cite
         "P. Giannozzi et al., J. Phys.:Condens. Matter 21 395502 (2009);
         "P. Giannozzi et al., J. Phys.:Condens. Matter 29 465901 (2017);
         "P. Giannozzi et al., J. Chem. Phys. 152 154105 (2020);
          URL http://www.quantum-espresso.org", 
     in publications or presentations arising from this work. More details at
     http://www.quantum-espresso.org/quote

     Parallel version (MPI & OpenMP), running on      16 processor cores
     Number of MPI processes:                16
     Threads/MPI process:                     1

     MPI processes distributed on     1 nodes
     18644 MiB available memory on the printing compute node when the environment starts

     Waiting for input...
     Reading input from standard input

     Current dimensions of program PWSCF are:
     Max number of different atomic species (ntypx) = 10
     Max number of k-points (npk) =  40000
     Max angular momentum in pseudopotentials (lmaxx) =  4
     Message from routine read_pp_mesh:
     mismatch in mesh size, discarding the one in header
     Message from routine read_pp_mesh:
     mismatch in mesh size, discarding the one in header
     Message from routine read_pp_mesh:
     mismatch in mesh size, discarding the one in header
     Message from routine read_pp_mesh:
     mismatch in mesh size, discarding the one in header
     Message from routine read_pp_mesh:
     mismatch in mesh size, discarding the one in header
     Message from routine setup:
     using ibrav=0 with symmetry is DISCOURAGED, use correct ibrav instead

     R & G space division:  proc/nbgrp/npool/nimage =      16
     Subspace diagonalization in iterative solution of the eigenvalue problem:
     a serial algorithm will be used


     Parallelization info
     --------------------
     sticks:   dense  smooth     PW     G-vecs:    dense   smooth      PW
     Min         302     151     41                15818     5573     784
     Max         304     152     43                15821     5577     786
     Sum        4849    2417    665               253119    89199   12557

     Using Slab Decomposition



     bravais-lattice index     =            0
     lattice parameter (alat)  =      11.2511  a.u.
     unit-cell volume          =    1424.2554 (a.u.)^3
     number of atoms/cell      =           12
     number of atomic types    =            5
     number of electrons       =        98.00
     number of Kohn-Sham states=           49
     kinetic-energy cutoff     =      60.0000  Ry
     charge density cutoff     =     480.0000  Ry
     scf convergence threshold =      1.0E-10
     mixing beta               =       0.7000
     number of iterations used =            8  plain     mixing
     Exchange-correlation= SLA PW PBX PBC
                           (   1   4   3   4   0   0   0)

     celldm(1)=  11.251125  celldm(2)=   0.000000  celldm(3)=   0.000000
     celldm(4)=   0.000000  celldm(5)=   0.000000  celldm(6)=   0.000000

     crystal axes: (cart. coord. in units of alat)
               a(1) = (   1.000000   0.000000   0.000000 )  
               a(2) = (   0.000000   1.000000   0.000000 )  
               a(3) = (   0.000000   0.000000   1.000000 )  

     reciprocal axes: (cart. coord. in units 2 pi/alat)
               b(1) = (  1.000000  0.000000  0.000000 )  
               b(2) = (  0.000000  1.000000  0.000000 )  
               b(3) = (  0.000000  0.000000  1.000000 )  


     PseudoPot. # 1 for Na read from file:
     ./Na.upf
     MD5 check sum: b8e483bdca8edababda73ba53cc0c4c9
     Pseudo is Projector augmented-wave + core cor, Zval =  9.0
     Generated using ATOMPAW code
     Shape of augmentation charge: SINC**2
     Using radial grid of 2342 points,  4 beta functions with: 
                l(1) =   0
                l(2) =   0
                l(3) =   1
                l(4) =   1
     Q(r) pseudized with 0 coefficients 


     PseudoPot. # 2 for K  read from file:
     ./K.upf
     MD5 check sum: 9356cfae17991a8ac93a0af773ad5d28
     Pseudo is Projector augmented-wave + core cor, Zval =  9.0
     Generated using ATOMPAW code
     Shape of augmentation charge: SINC**2
     Using radial grid of 2342 points,  5 beta functions with: 
                l(1) =   0
                l(2) =   0
                l(3) =   1
                l(4) =   1
                l(5) =   2
     Q(r) pseudized with 0 coefficients 


     PseudoPot. # 3 for Zr read from file:
     ./Zr.upf
     MD5 check sum: 10be9e9715c592225794718718b87d8f
     Pseudo is Projector augmented-wave + core cor, Zval = 12.0
     Generated using ATOMPAW code
     Shape of augmentation charge: BESSEL
     Using radial grid of 2342 points,  6 beta functions with: 
                l(1) =   0
                l(2) =   0
                l(3) =   1
                l(4) =   1
                l(5) =   2
                l(6) =   2
     Q(r) pseudized with 0 coefficients 


     PseudoPot. # 4 for Sn read from file:
     ./Sn.upf
     MD5 check sum: f8d5c2bd65c7f969f3af92fc3a9f2821
     Pseudo is Projector augmented-wave + core cor, Zval = 14.0
     Generated using ATOMPAW code
     Shape of augmentation charge: BESSEL
     Using radial grid of 2342 points,  6 beta functions with: 
                l(1) =   0
                l(2) =   0
                l(3) =   1
                l(4) =   1
                l(5) =   2
                l(6) =   2
     Q(r) pseudized with 0 coefficients 


     PseudoPot. # 5 for O  read from file:
     ./O.upf
     MD5 check sum: 45fbb1c0d1f8837f1e386a2947d3aa26
     Pseudo is Projector augmented-wave + core cor, Zval =  6.0
     Generated using ATOMPAW code
     Shape of augmentation charge: SINC**2
     Using radial grid of 2342 points,  4 beta functions with: 
                l(1) =   0
                l(2) =   0
                l(3) =   1
                l(4) =   1
     Q(r) pseudized with 0 coefficients 


     atomic species   valence    mass     pseudopotential
        Na             9.00    22.96000     Na( 1.00)
        K              9.00    39.09800     K ( 1.00)
        Zr            12.00    91.22400     Zr( 1.00)
        Sn            14.00   118.71000     Sn( 1.00)
        O              6.00    15.99900     O ( 1.00)

      2 Sym. Ops. (no inversion) found



   Cartesian axes

     site n.     atom                  positions (alat units)
         1           K   tau(   1) = (   0.0000000   0.0000000   0.0000000  )
         2           Na  tau(   2) = (   0.5000000   0.5000000   0.0000000  )
         3           K   tau(   3) = (   0.5000000   0.0000000   0.5000000  )
         4           Na  tau(   4) = (   0.0000000   0.5000000   0.5000000  )
         5           Zr  tau(   5) = (   0.2500000   0.2500000   0.2500000  )
         6           Sn  tau(   6) = (   0.7500000   0.7500000   0.7500000  )
         7           O   tau(   7) = (   0.2500000   0.0000000   0.0000000  )
         8           O   tau(   8) = (   0.7500000   0.0000000   0.0000000  )
         9           O   tau(   9) = (   0.0000000   0.2500000   0.0000000  )
        10           O   tau(  10) = (   0.0000000   0.7500000   0.0000000  )
        11           O   tau(  11) = (   0.0000000   0.0000000   0.2500000  )
        12           O   tau(  12) = (   0.0000000   0.0000000   0.7500000  )

     number of k points=    10
                       cart. coord. in units 2pi/alat
        k(    1) = (   0.0000000   0.0000000   0.0000000), wk =   0.0740741
        k(    2) = (   0.0000000   0.0000000   0.3333333), wk =   0.2962963
        k(    3) = (   0.0000000   0.3333333   0.3333333), wk =   0.2962963
        k(    4) = (   0.3333333   0.3333333   0.3333333), wk =   0.1481481
        k(    5) = (   0.0000000   0.3333333   0.0000000), wk =   0.1481481
        k(    6) = (   0.0000000   0.3333333  -0.3333333), wk =   0.2962963
        k(    7) = (   0.3333333   0.0000000  -0.3333333), wk =   0.1481481
        k(    8) = (  -0.3333333   0.0000000  -0.3333333), wk =   0.1481481
        k(    9) = (  -0.3333333   0.3333333  -0.3333333), wk =   0.1481481
        k(   10) = (   0.3333333  -0.3333333  -0.3333333), wk =   0.2962963

     Dense  grid:   253119 G-vectors     FFT dimensions: (  80,  80,  80)

     Smooth grid:    89199 G-vectors     FFT dimensions: (  60,  60,  60)

     Estimated max dynamical RAM per process >      75.40 MB

     Estimated total dynamical RAM >       1.18 GB

     Check: negative core charge=   -0.000001

     Initial potential from superposition of free atoms

     starting charge      97.9418, renormalised to      98.0000
     Starting wfcs are  126 randomized atomic wfcs
     Checking if some PAW data can be deallocated... 

     total cpu time spent up to now is        5.3 secs

     per-process dynamical memory:    68.8 Mb

     Self-consistent Calculation

     iteration #  1     ecut=    60.00 Ry     beta= 0.70
     Davidson diagonalization with overlap
     ethr =  1.00E-02,  avg # of iterations =  2.0

     total cpu time spent up to now is        7.4 secs

     total energy              =   -1438.26671640 Ry
     estimated scf accuracy    <       4.11982931 Ry

     iteration #  2     ecut=    60.00 Ry     beta= 0.70
     Davidson diagonalization with overlap
     ethr =  4.20E-03,  avg # of iterations =  5.4

     total cpu time spent up to now is       10.6 secs

     total energy              =   -1433.82727879 Ry
     estimated scf accuracy    <      51.56020702 Ry

     iteration #  3     ecut=    60.00 Ry     beta= 0.70
     Davidson diagonalization with overlap
     ethr =  4.20E-03,  avg # of iterations =  7.8

     total cpu time spent up to now is       14.2 secs

     total energy              =   -1440.49706669 Ry
     estimated scf accuracy    <       3.12567215 Ry

     iteration #  4     ecut=    60.00 Ry     beta= 0.70
     Davidson diagonalization with overlap
     ethr =  3.19E-03,  avg # of iterations =  5.0

     total cpu time spent up to now is       16.5 secs

     total energy              =   -1440.63152709 Ry
     estimated scf accuracy    <       0.71540242 Ry

     iteration #  5     ecut=    60.00 Ry     beta= 0.70
     Davidson diagonalization with overlap
     ethr =  7.30E-04,  avg # of iterations =  4.0

     total cpu time spent up to now is       18.7 secs

     total energy              =   -1440.60965029 Ry
     estimated scf accuracy    <       0.36682409 Ry

     iteration #  6     ecut=    60.00 Ry     beta= 0.70
     Davidson diagonalization with overlap
     ethr =  3.74E-04,  avg # of iterations =  5.8

     total cpu time spent up to now is       21.2 secs

     total energy              =   -1440.63419866 Ry
     estimated scf accuracy    <       0.05468459 Ry

     iteration #  7     ecut=    60.00 Ry     beta= 0.70
     Davidson diagonalization with overlap
     ethr =  5.58E-05,  avg # of iterations =  6.1

     total cpu time spent up to now is       23.8 secs

     total energy              =   -1440.63807619 Ry
     estimated scf accuracy    <       0.02482765 Ry

     iteration #  8     ecut=    60.00 Ry     beta= 0.70
     Davidson diagonalization with overlap
     ethr =  2.53E-05,  avg # of iterations =  5.5

     total cpu time spent up to now is       26.3 secs

     total energy              =   -1440.63995576 Ry
     estimated scf accuracy    <       0.00477781 Ry

     iteration #  9     ecut=    60.00 Ry     beta= 0.70
     Davidson diagonalization with overlap
     ethr =  4.88E-06,  avg # of iterations =  7.1

     total cpu time spent up to now is       29.3 secs

     total energy              =   -1440.64057658 Ry
     estimated scf accuracy    <       0.00554524 Ry

     iteration # 10     ecut=    60.00 Ry     beta= 0.70
     Davidson diagonalization with overlap
     ethr =  4.88E-06,  avg # of iterations =  5.9

     total cpu time spent up to now is       31.8 secs

     total energy              =   -1440.64107508 Ry
     estimated scf accuracy    <       0.00010929 Ry

     iteration # 11     ecut=    60.00 Ry     beta= 0.70
     Davidson diagonalization with overlap
     ethr =  1.12E-07,  avg # of iterations =  6.5

     total cpu time spent up to now is       34.9 secs

     total energy              =   -1440.64111418 Ry
     estimated scf accuracy    <       0.00015068 Ry

     iteration # 12     ecut=    60.00 Ry     beta= 0.70
     Davidson diagonalization with overlap
     ethr =  1.12E-07,  avg # of iterations =  4.4

     total cpu time spent up to now is       37.2 secs

     total energy              =   -1440.64112012 Ry
     estimated scf accuracy    <       0.00003904 Ry

     iteration # 13     ecut=    60.00 Ry     beta= 0.70
     Davidson diagonalization with overlap
     ethr =  3.98E-08,  avg # of iterations =  5.8

     total cpu time spent up to now is       39.7 secs

     total energy              =   -1440.64112332 Ry
     estimated scf accuracy    <       0.00000210 Ry

     iteration # 14     ecut=    60.00 Ry     beta= 0.70
     Davidson diagonalization with overlap
     ethr =  2.14E-09,  avg # of iterations =  6.4

     total cpu time spent up to now is       42.7 secs

     total energy              =   -1440.64112403 Ry
     estimated scf accuracy    <       0.00000057 Ry

     iteration # 15     ecut=    60.00 Ry     beta= 0.70
     Davidson diagonalization with overlap
     ethr =  5.79E-10,  avg # of iterations =  4.6

     total cpu time spent up to now is       45.2 secs

     total energy              =   -1440.64112408 Ry
     estimated scf accuracy    <       0.00000015 Ry

     iteration # 16     ecut=    60.00 Ry     beta= 0.70
     Davidson diagonalization with overlap
     ethr =  1.56E-10,  avg # of iterations =  6.5

     total cpu time spent up to now is       48.0 secs

     total energy              =   -1440.64112410 Ry
     estimated scf accuracy    <       0.00000007 Ry

     iteration # 17     ecut=    60.00 Ry     beta= 0.70
     Davidson diagonalization with overlap
     ethr =  7.23E-11,  avg # of iterations =  6.1

     total cpu time spent up to now is       50.6 secs

     total energy              =   -1440.64112411 Ry
     estimated scf accuracy    <          7.2E-09 Ry

     iteration # 18     ecut=    60.00 Ry     beta= 0.70
     Davidson diagonalization with overlap
     ethr =  7.40E-12,  avg # of iterations =  7.3

     total cpu time spent up to now is       53.5 secs

     total energy              =   -1440.64112411 Ry
     estimated scf accuracy    <          1.0E-09 Ry

     iteration # 19     ecut=    60.00 Ry     beta= 0.70
     Davidson diagonalization with overlap
     ethr =  1.03E-12,  avg # of iterations =  6.6

     total cpu time spent up to now is       56.3 secs

     total energy              =   -1440.64112411 Ry
     estimated scf accuracy    <          1.1E-10 Ry

     iteration # 20     ecut=    60.00 Ry     beta= 0.70
     Davidson diagonalization with overlap
     ethr =  1.14E-13,  avg # of iterations =  5.0

     total cpu time spent up to now is       59.1 secs

     End of self-consistent calculation

          k = 0.0000 0.0000 0.0000 ( 11075 PWs)   bands (ev):

   -46.3987 -46.3977 -42.8840 -31.0953 -25.1097 -21.7487 -21.1741 -21.1485
   -19.2299 -19.1644 -19.1370 -18.4735 -18.4520 -18.2694 -18.2678 -18.2516
   -18.2468 -15.5319 -15.4208 -15.3802 -15.3244 -15.2027 -12.9218 -12.9042
    -9.9077  -9.1211  -8.4474  -8.3736  -5.6865  -5.6582  -5.5747  -2.6314
    -1.3601  -1.2941  -0.1094  -0.0418   0.3607   1.8646   1.8722   2.3495
     2.3845   2.6562   3.1685   4.3030   4.3776   5.2324   5.3385   6.7000
     7.1588

          k = 0.0000 0.0000 0.3333 ( 11188 PWs)   bands (ev):

   -46.3986 -46.3978 -42.8840 -31.0952 -25.1095 -21.7501 -21.1746 -21.1496
   -19.2312 -19.1661 -19.1363 -18.4756 -18.4520 -18.2696 -18.2680 -18.2509
   -18.2482 -15.5343 -15.4170 -15.3789 -15.3252 -15.2037 -12.9093 -12.8742
    -9.9027  -9.0783  -8.4442  -8.3650  -5.9627  -5.6664  -5.5913  -2.6490
    -1.3763  -1.3128  -0.0514   0.2322   0.3985   1.8770   1.9466   2.2991
     2.4307   2.9558   3.2066   4.2143   4.2894   5.1773   5.4234   6.5236
     7.0525

          k = 0.0000 0.3333 0.3333 ( 11162 PWs)   bands (ev):

   -46.3986 -46.3978 -42.8840 -31.0951 -25.1095 -21.7508 -21.1762 -21.1497
   -19.2302 -19.1652 -19.1410 -18.4765 -18.4530 -18.2696 -18.2680 -18.2510
   -18.2482 -15.5307 -15.4160 -15.3801 -15.3253 -15.2043 -12.9023 -12.8467
    -9.8461  -9.0773  -8.4456  -8.3646  -5.9613  -5.8929  -5.6594  -2.6849
    -1.3951  -1.3513   0.0919   0.4375   0.5301   1.9052   1.9985   2.3255
     2.4906   2.9925   3.2652   4.1479   4.2110   5.1169   5.6934   6.5520
     7.0368

          k = 0.3333 0.3333 0.3333 ( 11188 PWs)   bands (ev):

   -46.3987 -46.3978 -42.8840 -31.0950 -25.1095 -21.7516 -21.1765 -21.1508
   -19.2326 -19.1681 -19.1413 -18.4755 -18.4540 -18.2700 -18.2675 -18.2501
   -18.2491 -15.5302 -15.4133 -15.3801 -15.3260 -15.2052 -12.8683 -12.8421
    -9.7943  -9.0692  -8.4463  -8.3815  -5.9571  -5.9362  -5.8873  -2.7320
    -1.4286  -1.3791   0.4982   0.5333   0.5549   1.9924   2.0178   2.4351
     2.4949   2.9329   3.3086   4.0672   4.1381   5.0553   5.9218   6.6035
     6.8775

          k = 0.0000 0.3333 0.0000 ( 11188 PWs)   bands (ev):

   -46.3987 -46.3977 -42.8840 -31.0952 -25.1097 -21.7495 -21.1756 -21.1486
   -19.2281 -19.1628 -19.1416 -18.4758 -18.4541 -18.2699 -18.2680 -18.2521
   -18.2470 -15.5280 -15.4185 -15.3814 -15.3247 -15.2037 -12.9233 -12.8693
    -9.8472  -9.1213  -8.4488  -8.3734  -5.8988  -5.6852  -5.6323  -2.6665
    -1.3757  -1.3311  -0.1081   0.2997   0.4107   1.8687   1.9640   2.2786
     2.4780   2.9389   3.2279   4.2522   4.3000   5.1697   5.4418   6.6518
     7.1761

          k = 0.0000 0.3333-0.3333 ( 11162 PWs)   bands (ev):

   -46.3986 -46.3978 -42.8840 -31.0951 -25.1095 -21.7506 -21.1763 -21.1497
   -19.2312 -19.1659 -19.1409 -18.4755 -18.4520 -18.2697 -18.2680 -18.2508
   -18.2484 -15.5312 -15.4172 -15.3801 -15.3252 -15.2039 -12.9011 -12.8465
    -9.8492  -9.0745  -8.4457  -8.3646  -5.9626  -5.8924  -5.6590  -2.6899
    -1.3947  -1.3511   0.0946   0.4554   0.5599   1.8900   1.9900   2.2754
     2.5133   2.9511   3.2626   4.1564   4.2185   5.1159   5.7051   6.5528
     6.9397

          k = 0.3333 0.0000-0.3333 ( 11162 PWs)   bands (ev):

   -46.3986 -46.3978 -42.8840 -31.0951 -25.1096 -21.7506 -21.1746 -21.1507
   -19.2328 -19.1682 -19.1369 -18.4765 -18.4529 -18.2698 -18.2678 -18.2517
   -18.2478 -15.5294 -15.4132 -15.3803 -15.3260 -15.2052 -12.8861 -12.8684
    -9.7981  -9.1268  -8.4497  -8.3710  -5.9604  -5.9282  -5.5954  -2.6964
    -1.4104  -1.3356   0.1154   0.4681   0.5529   1.9079   1.9583   2.3106
     2.5020   2.9075   3.2456   4.1004   4.2521   5.1123   5.6787   6.5532
     7.0920

          k =-0.3333 0.0000-0.3333 ( 11162 PWs)   bands (ev):

   -46.3987 -46.3978 -42.8840 -31.0951 -25.1095 -21.7511 -21.1749 -21.1507
   -19.2324 -19.1683 -19.1362 -18.4756 -18.4539 -18.2699 -18.2676 -18.2503
   -18.2490 -15.5331 -15.4133 -15.3789 -15.3259 -15.2050 -12.8783 -12.8683
    -9.8469  -9.0738  -8.4448  -8.3817  -5.9578  -5.9343  -5.5968  -2.6879
    -1.4110  -1.3364   0.1115   0.4363   0.4978   1.9347   1.9822   2.3687
     2.4644   3.0038   3.2507   4.0983   4.2193   5.1137   5.6733   6.7120
     6.8578

          k =-0.3333 0.3333-0.3333 ( 11188 PWs)   bands (ev):

   -46.3987 -46.3978 -42.8840 -31.0950 -25.1094 -21.7511 -21.1766 -21.1508
   -19.2350 -19.1693 -19.1409 -18.4734 -18.4521 -18.2702 -18.2676 -18.2503
   -18.2490 -15.5307 -15.4157 -15.3801 -15.3257 -15.2042 -12.8664 -12.8418
    -9.7949  -9.0715  -8.4461  -8.3815  -5.9584  -5.9317  -5.8893  -2.7278
    -1.4302  -1.3777   0.4916   0.5022   0.6168   1.9688   1.9755   2.4157
     2.5163   2.9447   3.2983   4.0911   4.1420   5.0530   6.0339   6.5720
     6.7010

          k = 0.3333-0.3333-0.3333 ( 11188 PWs)   bands (ev):

   -46.3986 -46.3978 -42.8840 -31.0950 -25.1096 -21.7509 -21.1763 -21.1508
   -19.2343 -19.1685 -19.1418 -18.4754 -18.4520 -18.2698 -18.2678 -18.2515
   -18.2478 -15.5271 -15.4146 -15.3815 -15.3259 -15.2048 -12.8675 -12.8493
    -9.7430  -9.1258  -8.4510  -8.3705  -5.9595  -5.9367  -5.8794  -2.7373
    -1.4279  -1.3780   0.4802   0.5337   0.6259   1.9406   1.9873   2.4446
     2.4923   2.9176   3.3011   4.0786   4.1857   5.0526   5.9712   6.4975
     6.9341

     highest occupied level (ev):     7.1761

!    total energy              =   -1440.64112411 Ry
     total all-electron energy =     -1440.641124 Ry
     estimated scf accuracy    <          2.8E-11 Ry

     The total energy is the sum of the following terms:
     one-electron contribution =    -584.98085462 Ry
     hartree contribution      =     340.44776816 Ry
     xc contribution           =    -130.44516071 Ry
     ewald contribution        =    -342.76060903 Ry
     one-center paw contrib.   =    -722.90226792 Ry

     convergence has been achieved in  20 iterations

     Forces acting on atoms (cartesian axes, Ry/au):

     atom    1 type  2   force =    -0.06678857   -0.03388759   -0.06678857
     atom    2 type  1   force =     0.00378016    0.00541730   -0.00869882
     atom    3 type  2   force =    -0.02511638    0.01524627   -0.02511638
     atom    4 type  1   force =    -0.00869882    0.00541730    0.00378016
     atom    5 type  3   force =    -0.07694511   -0.06485112   -0.07694511
     atom    6 type  4   force =    -0.01114211   -0.09228236   -0.01114211
     atom    7 type  5   force =     0.66332155    0.02413201    0.02999994
     atom    8 type  5   force =    -0.58964522    0.03284093    0.03164338
     atom    9 type  5   force =     0.02702994    0.64187151    0.02702994
     atom   10 type  5   force =     0.02256124   -0.59087721    0.02256124
     atom   11 type  5   force =     0.02999994    0.02413201    0.66332155
     atom   12 type  5   force =     0.03164338    0.03284093   -0.58964522

     Total force =     1.543602     Total SCF correction =     0.000021


     Computing stress (Cartesian axis) and pressure

          total   stress  (Ry/bohr**3)                   (kbar)     P=      455.67
   0.00307403  -0.00007808  -0.00000034          452.21      -11.49       -0.05
  -0.00007808   0.00314479  -0.00007808          -11.49      462.61      -11.49
  -0.00000034  -0.00007808   0.00307403           -0.05      -11.49      452.21


     Writing all to output data dir ./Na2K2SnZrO6.save/

     init_run     :      3.57s CPU      3.72s WALL (       1 calls)
     electrons    :     52.05s CPU     53.89s WALL (       1 calls)
     forces       :      0.97s CPU      1.00s WALL (       1 calls)
     stress       :      2.72s CPU      2.80s WALL (       1 calls)

     Called by init_run:
     wfcinit      :      0.97s CPU      1.01s WALL (       1 calls)
     potinit      :      1.04s CPU      1.06s WALL (       1 calls)
     hinit0       :      1.28s CPU      1.33s WALL (       1 calls)

     Called by electrons:
     c_bands      :     33.30s CPU     33.95s WALL (      20 calls)
     sum_band     :      5.91s CPU      6.46s WALL (      20 calls)
     v_of_rho     :      0.58s CPU      0.60s WALL (      21 calls)
     newd         :      2.20s CPU      2.68s WALL (      21 calls)
     PAW_pot      :     10.51s CPU     10.60s WALL (      21 calls)
     mix_rho      :      0.11s CPU      0.12s WALL (      20 calls)

     Called by c_bands:
     init_us_2    :      0.34s CPU      0.36s WALL (     430 calls)
     init_us_2:cp :      0.34s CPU      0.36s WALL (     430 calls)
     cegterg      :     32.28s CPU     32.89s WALL (     200 calls)

     Called by *egterg:
     cdiaghg      :     12.64s CPU     12.81s WALL (    1338 calls)
     h_psi        :     14.26s CPU     14.61s WALL (    1348 calls)
     s_psi        :      1.33s CPU      1.34s WALL (    1348 calls)
     g_psi        :      0.22s CPU      0.22s WALL (    1138 calls)

     Called by h_psi:
     h_psi:calbec :      1.63s CPU      1.70s WALL (    1348 calls)
     vloc_psi     :     11.18s CPU     11.44s WALL (    1348 calls)
     add_vuspsi   :      1.37s CPU      1.39s WALL (    1348 calls)

     General routines
     calbec       :      2.22s CPU      2.33s WALL (    1598 calls)
     fft          :      0.60s CPU      0.66s WALL (     296 calls)
     ffts         :      0.25s CPU      0.25s WALL (      41 calls)
     fftw         :     11.62s CPU     11.89s WALL (   64456 calls)
     interpolate  :      0.27s CPU      0.27s WALL (      21 calls)

     Parallel routines

     PWSCF        :   1m 0.65s CPU   1m 4.15s WALL


   This run was terminated on:   2: 3:28   1Dec2025            

=------------------------------------------------------------------------------=
   JOB DONE.
=------------------------------------------------------------------------------=
